HEADER
"PSFversion" "1.00"
"M0n" "PRIMLIB_ped_spectre"
"V2n V1n V0n" "analogLib_vdc_spectre"
