HEADER
"PSFversion" "1.00"
"design" "(\"Device_Characteristics\" \"Test_nedia\" \"schematic\" \"\")"
"simulator" "spectre"
"temperature" "27"
"host" ""
"date" "Mar  2 14:00:18 2021"
"title" ""
"analysisList" "()"
END
