HEADER
"PSFversion" "1.00"
"gnd!v" "cds_globals.\\gnd! v"
"vdd3!v" "cds_globals.\\vdd3! v"
"vdde!v" "cds_globals.\\vdde! v"
