HEADER
"PSFversion" "1.00"
"I3n" "INV_ST"
"I8n I1n" "INV3_ST"
"V3n V1n V0n" "analogLib_vdc_spectre"
"V2n" "analogLib_vpulse_spectre"
"M3n M2n" "PRIMLIB_pmma_bjt_spectre"
"M9n M8n" "PRIMLIB_nmma_bjt_spectre"
