HEADER
"PSFversion" "1.00"
"__NEXT_FILE__" "IL2239_SAR_ADC_SAR4_ADC_sim_schematic"
