HEADER
"PSFversion" "1.00"
"design" "(\"Stimulator_TestBench\" \"TB_Digital_Stimuli\" \"config\" \"\")"
"simulator" "ams"
"temperature" "27"
"host" ""
"date" "Mar 25 14:59:50 2021"
"title" ""
"analysisList" "()"
END
