HEADER
"PSFversion" "1.00"
"Outv" ".Outv"
"ANOv" ".ANOv"
"CATv" ".CATv"
"VddHv" ".VddHv"
"Vddav" ".Vddav"
"Vssav" ".Vssav"
"Ibiasv" ".Ibiasv"
