HEADER
"PSFversion" "1.00"
"I11n I13n" "analogLib_idc_spectre"
"R0n" "analogLib_res_spectre"
"V0n V3n V4n" "analogLib_vpulse_spectre"
"V1n V2n" "analogLib_vdc_spectre"
"I10n I14n" "Stimulator_Model_Current_Source_verilogams"
"I12n" "Digital_Lib_Counter_functional"
"I7n I9n" "Stimulator_Model_Stimulus_Driver_verilogams"
