HEADER
"PSFversion" "1.00"
"design" "(\"Stimulator_TestBench\" \"TB_Decoder3_8\" \"config\" \"\")"
"simulator" "ams"
"temperature" "27"
"host" ""
"date" "Apr  1 15:17:39 2021"
"title" ""
"analysisList" "()"
END
