HEADER
"PSFversion" "1.00"
"nen" "PRIMLIB_ne_spectre"
"pen" "PRIMLIB_pe_spectre"
"inv" ":1v"
"outv" ":2v"
"gndv" ":3v"
"vddv" ":4v"
