HEADER
"PSFversion" "1.00"
"EN_STv" ".EN_STv"
"MAG_ST<0>v" ".MAG_ST[0]v"
"MAG_ST<1>v" ".MAG_ST[1]v"
"MAG_ST<2>v" ".MAG_ST[2]v"
"MAG_ST<3>v" ".MAG_ST[3]v"
"MAG_ST<4>v" ".MAG_ST[4]v"
"ChSel_HS<0>v" ".ChSel_HS[0]v"
"ChSel_HS<1>v" ".ChSel_HS[1]v"
"ChSel_HS<2>v" ".ChSel_HS[2]v"
"ChSel_HS<3>v" ".ChSel_HS[3]v"
"ChSel_LS<0>v" ".ChSel_LS[0]v"
"ChSel_LS<1>v" ".ChSel_LS[1]v"
"ChSel_LS<2>v" ".ChSel_LS[2]v"
"ChSel_LS<3>v" ".ChSel_LS[3]v"
