HEADER
"PSFversion" "1.00"
"M0n" "PRIMLIB_nedia_spectre"
"V1n V0n" "analogLib_vdc_spectre"
