HEADER
"PSFversion" "1.00"
"CH_Sel<0>v" "CH_Sel[0]v"
"CH_Sel<1>v" "CH_Sel[1]v"
"CH_Sel<2>v" "CH_Sel[2]v"
"CH_Sel<3>v" "CH_Sel[3]v"
"Gain_Sel<0>v" "Gain_Sel[0]v"
"Gain_Sel<1>v" "Gain_Sel[1]v"
"Gain_Sel<2>v" "Gain_Sel[2]v"
"gnd!v" "cds_globals.\\gnd! v"
"net4<0>v" "net4[0]v"
"net4<10>v" "net4[10]v"
"net4<11>v" "net4[11]v"
"net4<1>v" "net4[1]v"
"net4<2>v" "net4[2]v"
"net4<3>v" "net4[3]v"
"net4<4>v" "net4[4]v"
"net4<5>v" "net4[5]v"
"net4<6>v" "net4[6]v"
"net4<7>v" "net4[7]v"
"net4<8>v" "net4[8]v"
"net4<9>v" "net4[9]v"
