HEADER
"PSFversion" "1.00"
"V0n V1n V10n V11n V12n V13n V15n V16n V17n V2n V21n V22n V23n V3n V8n V9n" "analogLib_vsin_spectre"
"V14n V7n" "analogLib_vpulse_spectre"
"V18n V19n V20n V24n V4n V5n V6n" "analogLib_vdc_spectre"
"I13n" "EMG_Model_EMG_Clock_Gen_functional"
"I3n" "EMG_Model_MultiCH_16_EMG_schematic"
"I4n" "EMG_Model_Digital_Stimuli_EMG_functional"
"I5n" "EMG_Model_DAC_EMG_verilogams"
