HEADER
"PSFversion" "1.00"
"CH_Sel<0>v" "CH_Sel[0]v"
"CH_Sel<1>v" "CH_Sel[1]v"
"CH_Sel<2>v" "CH_Sel[2]v"
"CH_Sel<3>v" "CH_Sel[3]v"
"cnt<0>v" "cnt[0]v"
"cnt<1>v" "cnt[1]v"
"cnt<2>v" "cnt[2]v"
"cnt<3>v" "cnt[3]v"
