HEADER
"PSFversion" "1.00"
"inv" "(FUNCTION or(mappedRoot(\".4@index\") mappedRoot(\".in\")))v"
"inv" ".inv"
"inv" ".\\4 v"
"VDDv" "(FUNCTION or(mappedRoot(\".2@index\") mappedRoot(\".VDD\")))v"
"VDDv" ".VDDv"
"VDDv" ".\\2 v"
"VSSv" "(FUNCTION or(mappedRoot(\".3@index\") mappedRoot(\".VSS\")))v"
"VSSv" ".VSSv"
"VSSv" ".\\3 v"
"outv" "(FUNCTION or(mappedRoot(\".1@index\") mappedRoot(\".out\")))v"
"outv" ".outv"
"outv" ".\\1 v"
