HEADER
"PSFversion" "1.00"
"startv" ".startv"
"compv" ".compv"
