HEADER
"PSFversion" "1.00"
"V0n" "analogLib_vsource_spectre"
"I0n" "IL2239_SAR_ADC_SAR4_verilogams"
"I1n" "IL2239_SAR_ADC_digital_stimuli_SAR4_verilogams"
