HEADER
"PSFversion" "1.00"
"Time Stamp" "Apr  6 10:17:45 2021"
TYPE
"variable" STRUCT(
"value" FLOAT DOUBLE
) PROP( "key" "element" )
VALUE
"Rload" "variable" ( 1.2e3 ) PROP( )
"temp" "variable" ( 27 ) PROP( )
END
