HEADER
"PSFversion" "1.00"
"I27n" "analogLib_idc_spectre"
"R0n R1n R10n R2n R3n R4n R5n R6n R7n R8n R9n" "analogLib_res_spectre"
"V0n V1n V2n V3n" "analogLib_vdc_spectre"
"I0n I11n I13n I15n I17n I19n I7n I9n" "Stimulator_IMP_HalfBridge_ST_schematic"
"I26n" "Stimulator_IMP_CurrentSource_All_ST_schematic"
"I30n I31n" "Stimulator_IMP_Decoder8_functional"
"I32n" "Stimulator_IMP_Digital_Stimulus_V2_ST_functional"
