HEADER
"PSFversion" "1.00"
"I37n" "analogLib_idc_spectre"
"R0n R1n R2n R3n" "analogLib_res_spectre"
"V0n V1n V2n V3n" "analogLib_vdc_spectre"
"I32n" "Stimulator_IMP_Digital_Stimulus_ChSel_ST_functional"
"I33n I34n" "Stimulator_IMP_Decoder3_8_functional"
"I35n" "Stimulator_IMP_MultiChannel_ST_schematic"
