HEADER
"PSFversion" "1.00"
"design" "(\"EMG_TestBench\" \"TB_Digital_Stimulus_all\" \"config\" \"\")"
"simulator" "ams"
"temperature" "27"
"host" ""
"date" "Feb 15 23:10:53 2021"
"title" ""
"analysisList" "()"
END
