HEADER
"PSFversion" "1.00"
"Time Stamp" "Mar 25 16:12:53 2021"
TYPE
"variable" STRUCT(
"value" FLOAT DOUBLE
) PROP( "key" "element" )
VALUE
"temp" "variable" ( 27 ) PROP( )
END
