HEADER
"PSFversion" "1.00"
"design" "(\"EMG_TestBench\" \"TB_Digital_Stimulus_EMG_NMES_V2\" \"config\" \"\")"
"simulator" "ams"
"temperature" "27"
"host" ""
"date" "Feb 15 15:02:28 2021"
"title" ""
"analysisList" "()"
END
