HEADER
"PSFversion" "1.00"
"Time Stamp" "Apr  5 14:55:50 2021"
TYPE
"variable" STRUCT(
"value" FLOAT DOUBLE
) PROP( "key" "element" )
VALUE
"Rload" "variable" ( 500 ) PROP( )
"temp" "variable" ( 27 ) PROP( )
END
