HEADER
"PSFversion" "1.00"
"design" "(\"Stimulator_TestBench\" \"TB_HBridge_DC\" \"schematic\" \"\")"
"simulator" "spectre"
"temperature" "27"
"host" ""
"date" "Mar 23 16:20:32 2021"
"title" ""
"analysisList" "()"
END
