HEADER
"PSFversion" "1.00"
"Time Stamp" "Mar 23 16:20:32 2021"
TYPE
"variable" STRUCT(
"value" FLOAT DOUBLE
) PROP( "key" "element" )
VALUE
"Iref" "variable" ( 100e-6 ) PROP( )
"temp" "variable" ( 27 ) PROP( )
END
