HEADER
"PSFversion" "1.00"
"Time Stamp" "Mar 19 16:39:31 2021"
TYPE
"variable" STRUCT(
"value" FLOAT DOUBLE
) PROP( "key" "element" )
VALUE
"vdac" "variable" ( 1.5 ) PROP( )
"Iref" "variable" ( 100e-6 ) PROP( )
"temp" "variable" ( 27 ) PROP( )
END
