HEADER
"PSFversion" "1.00"
"Time Stamp" "Feb 27 15:15:19 2021"
TYPE
"variable" STRUCT(
"value" FLOAT DOUBLE
) PROP( "key" "element" )
VALUE
"VDS" "variable" ( 20 ) PROP( )
"VGS" "variable" ( 10 ) PROP( )
"W" "variable" ( 100e-6 ) PROP( )
"temp" "variable" ( 27 ) PROP( )
END
