HEADER
"PSFversion" "1.00"
"design" "(\"EMG_202009\" \"TB_MultiplexingADC_v2\" \"config\" \"\")"
"simulator" "ams"
"temperature" "27"
"host" ""
"date" "Sep 30 15:17:45 2020"
"title" ""
"analysisList" "()"
END
