HEADER
"PSFversion" "1.00"
"design" "(\"Stimulator_TestBench\" \"TB_Single_CH_V2\" \"config\" \"\")"
"simulator" "ams"
"temperature" "27"
"host" ""
"date" "Feb 22 17:46:56 2021"
"title" ""
"analysisList" "()"
END
