HEADER
"PSFversion" "1.00"
"__artInstanceTerminalDelimiter__" "."
"__artHierarchyDelimiter__" "."
"__netlister__" "AMS-UNL"
"__lib__" "EMG_NMES_TestBench"
"__cell__" "Sim_StimulusArtifact"
"__view__" "config"
"__topcell__" "Sim_StimulusArtifact"
"__outputformat__" "sst2"
