HEADER
"PSFversion" "1.00"
"Sel_Mux4<0>v" ".Sel_Mux4[0]v"
"Sel_Mux4<1>v" ".Sel_Mux4[1]v"
