HEADER
"PSFversion" "1.00"
"gnd!v" "cds_globals.\\gnd! v"
"sel<0>v" "sel[0]v"
"sel<1>v" "sel[1]v"
