HEADER
"PSFversion" "1.00"
"design" "(\"EMG_202009\" \"TB_HDEMG_AFE_16\" \"config\" \"\")"
"simulator" "ams"
"temperature" "27"
"host" ""
"date" "Sep 28 16:33:54 2020"
"title" ""
"analysisList" "()"
END
