HEADER
"PSFversion" "1.00"
"Time Stamp" "Sep 28 16:33:54 2020"
TYPE
"variable" STRUCT(
"value" FLOAT DOUBLE
) PROP( "key" "element" )
VALUE
"Vcm" "variable" ( 0 ) PROP( )
"temp" "variable" ( 27 ) PROP( )
END
