HEADER
"PSFversion" "1.00"
"Col<0>v" "Col[0]v"
"Col<1>v" "Col[1]v"
"Col<2>v" "Col[2]v"
"Row<0>v" "Row[0]v"
"Row<1>v" "Row[1]v"
"gnd!v" "cds_globals.\\gnd! v"
