HEADER
"PSFversion" "1.00"
"M26n M13n" "PRIMLIB_ne3_spectre"
"Iinv" ":1v"
"Ix10v" ":2v"
"gnd!v" ":3v"
