HEADER
"PSFversion" "1.00"
"Voutv" ".Voutv"
"Vinpv" ".Vinpv"
"Vinnv" ".Vinnv"
"Gain_Sel<0>v" ".Gain_Sel[0]v"
"Gain_Sel<1>v" ".Gain_Sel[1]v"
"Gain_Sel<2>v" ".Gain_Sel[2]v"
"Vddav" ".Vddav"
"Vdddv" ".Vdddv"
"Vssav" ".Vssav"
"Vssdv" ".Vssdv"
"Vsubv" ".Vsubv"
"Ibiasv" ".Ibiasv"
