HEADER
"PSFversion" "1.00"
"design" "(\"Stimulator_TestBench\" \"TB_LS_HighSide_ST\" \"schematic\" \"\")"
"simulator" "spectre"
"temperature" "27"
"host" ""
"date" "Mar 23 10:59:45 2021"
"title" ""
"analysisList" "()"
END
