HEADER
"PSFversion" "1.00"
"Enablev" ".Enablev"
"RESETv" ".RESETv"
"CLK_EMGv" ".CLK_EMGv"
"EN_ADC_EMGv" ".EN_ADC_EMGv"
"CH_SEL_EMG<0>v" ".CH_SEL_EMG[0]v"
"CH_SEL_EMG<1>v" ".CH_SEL_EMG[1]v"
"CH_SEL_EMG<2>v" ".CH_SEL_EMG[2]v"
"CH_SEL_EMG<3>v" ".CH_SEL_EMG[3]v"
"START_EMGv" ".START_EMGv"
"MUX_CLK_EMGv" ".MUX_CLK_EMGv"
