HEADER
"PSFversion" "1.00"
"V0n" "analogLib_vpwl_spectre"
"I0n" "EMG_Model_Digital_Stimuli_EMG_V2_functional"
