HEADER
"PSFversion" "1.00"
"M0n" "PRIMLIB_nmma_bjt_spectre"
"M1n" "PRIMLIB_pmma_bjt_spectre"
"inv" ":1v"
"outv" ":2v"
"vdd10v" ":3v"
"vssv" ":4v"
