HEADER
"PSFversion" "1.00"
"M1n" "PRIMLIB_pe3_spectre"
"M0n" "PRIMLIB_ne3_spectre"
"inv" ":1v"
"outv" ":2v"
"vdd3v" ":3v"
"vssv" ":4v"
