HEADER
"PSFversion" "1.00"
"I0n" "LS_LowSide_ST"
"I7n I8n" "INV10_ST"
"M5n M4n M1n M0n" "PRIMLIB_nedia_spectre"
"M2n M3n" "PRIMLIB_pmma_bjt_spectre"
"M7n M6n" "PRIMLIB_nmma_bjt_spectre"
"inv" ":1v"
"outv" ":2v"
"outnv" ":3v"
"vdd10v" ":4v"
"vdd3v" ":5v"
"vddhv" ":6v"
"vssv" ":7v"
"vsshv" ":8v"
