HEADER
"PSFversion" "1.00"
"design" "(\"Stimulator_TestBench\" \"TB_LS_LowSide_imp\" \"schematic\" \"\")"
"simulator" "spectre"
"temperature" "27"
"host" ""
"date" "Apr  8 15:27:53 2021"
"title" ""
"analysisList" "()"
END
