HEADER
"PSFversion" "1.00"
"E00v" ".E00v"
"E01v" ".E01v"
"E02v" ".E02v"
"E03v" ".E03v"
"E10v" ".E10v"
"E11v" ".E11v"
"E12v" ".E12v"
"E13v" ".E13v"
"Istv" ".Istv"
"ENv" ".ENv"
"ANOv" ".ANOv"
"CATv" ".CATv"
"DISv" ".DISv"
"CH_SEL_U<0>v" ".CH_SEL_U[0]v"
"CH_SEL_U<1>v" ".CH_SEL_U[1]v"
"CH_SEL_D<0>v" ".CH_SEL_D[0]v"
"CH_SEL_D<1>v" ".CH_SEL_D[1]v"
"Vddhv" ".Vddhv"
"Vddav" ".Vddav"
"Vdddv" ".Vdddv"
"Vssav" ".Vssav"
"Vssdv" ".Vssdv"
