HEADER
"PSFversion" "1.00"
"CH_SEL_U<0>v" "CH_SEL_U[0]v"
"CH_SEL_U<1>v" "CH_SEL_U[1]v"
"CH_SEL_D<0>v" "CH_SEL_D[0]v"
"CH_SEL_D<1>v" "CH_SEL_D[1]v"
