HEADER
"PSFversion" "1.00"
"V0n" "analogLib_vsin_spectre"
"V1n" "analogLib_vdc_spectre"
"V2n" "analogLib_vpulse_spectre"
"I0n" "EMG_202009_ADC_verilogams"
"I4n" "EMG_202009_DAC_verilogams"
