HEADER
"PSFversion" "1.00"
"Vinv" ".Vinv"
"Clkv" ".Clkv"
"Vddav" ".Vddav"
"Vssav" ".Vssav"
