HEADER
"PSFversion" "1.00"
"Voutv" ".Voutv"
"Clkv" ".Clkv"
"Vddav" ".Vddav"
"Vssav" ".Vssav"
