HEADER
"PSFversion" "1.00"
"Time Stamp" "Apr  6 12:59:15 2021"
TYPE
"variable" STRUCT(
"value" FLOAT DOUBLE
) PROP( "key" "element" )
VALUE
"Rload" "variable" ( 1e3 ) PROP( )
"temp" "variable" ( 27 ) PROP( )
END
