HEADER
"PSFversion" "1.00"
"Voutpv" ".Voutpv"
"Voutnv" ".Voutnv"
"Vinpv" ".Vinpv"
"Vinnv" ".Vinnv"
"Vddav" ".Vddav"
"Vssav" ".Vssav"
"Ibiasv" ".Ibiasv"
"Vsubv" ".Vsubv"
