HEADER
"PSFversion" "1.00"
"design" "(\"EMG_TestBench\" \"TB_EMG_w_SwitchArray\" \"config\" \"\")"
"simulator" "ams"
"temperature" "27"
"host" ""
"date" "Feb 19 17:43:21 2021"
"title" ""
"analysisList" "()"
END
