HEADER
"PSFversion" "1.00"
"resetv" ".resetv"
"clockv" ".clockv"
"compv" ".compv"
"startv" ".startv"
"SW_inpv" ".SW_inpv"
"SW_refv" ".SW_refv"
"DAC_out3v" ".DAC_out3v"
"DAC_out2v" ".DAC_out2v"
"DAC_out1v" ".DAC_out1v"
"DAC_out0v" ".DAC_out0v"
"out3v" ".out3v"
"out2v" ".out2v"
"out1v" ".out1v"
"out0v" ".out0v"
"eocv" ".eocv"
