HEADER
"PSFversion" "1.00"
"invr_1n" "invrv3"
"Av" ":1v"
"Qv" ":2v"
"gndv" ":3v"
"vdd3v" ":4v"
