HEADER
"PSFversion" "1.00"
"M13n" "PRIMLIB_nedia_bjt_spectre"
"I0n" "ResistiveDivider"
"I10n" "LSHVT18U3VX1"
"gnd!v" ":1v"
"inv" ":2v"
"outv" ":3v"
"vdd3!v" ":4v"
"vdde!v" ":5v"
"vddhv" ":6v"
"[@ground_gnd:%:gnd!]v" ":7v"
"[@power_vdd3:%:vdd3!]v" ":8v"
"[@power_vdde:%:vdde!]v" ":9v"
