HEADER
"PSFversion" "1.00"
"I2n" "ResistiveDivider"
"M1n" "PRIMLIB_ped_bjt_spectre"
"I1n" "LS_HighSide_V3_ST"
"gnd!v" ":1v"
"inv" ":2v"
"outv" ":3v"
"vdd3!v" ":4v"
"vdde!v" ":5v"
"vddhv" ":6v"
"[@ground_gnd:%:gnd!]v" ":7v"
"[@power_vdd3:%:vdd3!]v" ":8v"
"[@power_vdde:%:vdde!]v" ":9v"
