HEADER
"PSFversion" "1.00"
"R37n R36n R35n R34n R33n R32n R31n R30n R29n R28n R27n R26n R25n R24n R23n R22n R21n R20n R19n R18n R17n R16n R15n R14n R13n R12n R11n R10n R9n R8n R7n R6n R5n R4n R3n R2n" "PRIMLIB_rpp1k1_spectre"
"V1v" ":1v"
"V2v" ":2v"
"VOUTv" ":3v"
