HEADER
"PSFversion" "1.00"
"V13n V12n" "analogLib_vpwl_spectre"
"M70n M69n M68n M67n M66n M65n M64n M63n M62n" "PRIMLIB_ped_bjt_spectre"
"M82n M81n M80n M79n M43n M37n M29n M53n M26n M20n M11n" "PRIMLIB_ne3_spectre"
"M32n M50n M36n M35n M34n M33n M30n M27n M25n M24n M23n M22n M21n M19n M15n" "PRIMLIB_nedia_bjt_spectre"
"M61n M60n M59n M58n M57n M56n M55n M54n M51n M48n M42n M41n M39n M38n M49n M44n M45n M46n M47n M31n" "PRIMLIB_pe3_spectre"
"I45n I42n I40n I39n I3n I5n I7n I9n" "IN_3VX2"
"I44n I43n I41n I0n I38n I4n I6n I35n I34n I27n" "LSHVT18U3VX1"
"V15n V14n V11n V10n V8n V7n V6n V5n V4n V3n V0n" "analogLib_vdc_spectre"
"R3n" "analogLib_res_spectre"
"R2n R17n R8n R16n R18n R9n R1n" "PRIMLIB_rpp1k1_spectre"
"C6n C4n" "PRIMLIB_csft5a_spectre"
"I33n" "LS_LowSide_V2_ST"
"I36n" "LS_HighSide_V3_ST"
