HEADER
"PSFversion" "1.00"
"V0n V1n" "analogLib_vdc_spectre"
"V2n" "analogLib_vpwl_spectre"
"I0n" "Stimulator_Model_Digital_Stimulus_ST_V2_functional"
