HEADER
"PSFversion" "1.00"
"design" "(\"EMG_TestBench\" \"TB_EMG_w_SwitchArray\" \"config\" \"\")"
"simulator" "ams"
"temperature" "27"
"host" ""
"date" "Feb 22 15:06:58 2021"
"title" ""
"analysisList" "()"
END
