HEADER
"PSFversion" "1.00"
"I0n" "LSHVT18U3VX1"
"V0n" "analogLib_vpulse_spectre"
"M0n" "PRIMLIB_nedia_bjt_spectre"
"R3n R2n R1n R0n" "analogLib_res_spectre"
"V3n V2n V1n" "analogLib_vdc_spectre"
"M1n" "PRIMLIB_ped_bjt_spectre"
