HEADER
"PSFversion" "1.00"
"__NEXT_FILE__" "LS_LowSide_V2_ST"
