HEADER
"PSFversion" "1.00"
"Gain_Sel<0>v" "Gain_Sel[0]v"
"Gain_Sel<1>v" "Gain_Sel[1]v"
"Gain_Sel<2>v" "Gain_Sel[2]v"
