HEADER
"PSFversion" "1.00"
"Ioutv" ".Ioutv"
"Irefv" ".Irefv"
"ENv" ".ENv"
"ANOv" ".ANOv"
"CATv" ".CATv"
"Vddav" ".Vddav"
"Vssav" ".Vssav"
