HEADER
"PSFversion" "1.00"
"__NEXT_FILE__" "Stimulator_TestBench_TB_HBridge_schematic"
