HEADER
"PSFversion" "1.00"
"V1v" ".V1v"
"V2v" ".V2v"
"V3v" ".V3v"
"V4v" ".V4v"
"V5v" ".V5v"
"V6v" ".V6v"
"V7v" ".V7v"
"V8v" ".V8v"
"V9v" ".V9v"
"V10v" ".V10v"
"V11v" ".V11v"
"V12v" ".V12v"
"V13v" ".V13v"
"V14v" ".V14v"
"V15v" ".V15v"
"V16v" ".V16v"
"Vddav" ".Vddav"
"Vssav" ".Vssav"
