HEADER
"PSFversion" "1.00"
"CH_SEL_EMG<0>v" "CH_SEL_EMG[0]v"
"CH_SEL_EMG<1>v" "CH_SEL_EMG[1]v"
"CH_SEL_EMG<2>v" "CH_SEL_EMG[2]v"
"CH_SEL_EMG<3>v" "CH_SEL_EMG[3]v"
"GAIN_EMG<0>v" "GAIN_EMG[0]v"
"GAIN_EMG<1>v" "GAIN_EMG[1]v"
"GAIN_EMG<2>v" "GAIN_EMG[2]v"
