HEADER
"PSFversion" "1.00"
"design" "(\"Stimulator_TestBench\" \"TB_Compliance_voltage\" \"schematic\" \"\")"
"simulator" "spectre"
"temperature" "27"
"host" ""
"date" "May  4 16:34:46 2021"
"title" ""
"analysisList" "()"
END
