HEADER
"PSFversion" "1.00"
"Time Stamp" "May  4 16:34:47 2021"
TYPE
"variable" STRUCT(
"value" FLOAT DOUBLE
) PROP( "key" "element" )
VALUE
"vout" "variable" ( 20 ) PROP( )
"Iref" "variable" ( 280e-6 ) PROP( )
"temp" "variable" ( 27 ) PROP( )
END
