HEADER
"PSFversion" "1.00"
"out<0>v" ".out[0]v"
"out<1>v" ".out[1]v"
"out<2>v" ".out[2]v"
"CLKv" ".CLKv"
"RESETv" ".RESETv"
"ENv" ".ENv"
