HEADER
"PSFversion" "1.00"
"Bin<0>v" "Bin[0]v"
"Bin<1>v" "Bin[1]v"
"Bin<2>v" "Bin[2]v"
"Dout<0>v" "Dout[0]v"
"Dout<1>v" "Dout[1]v"
"Dout<2>v" "Dout[2]v"
"Dout<3>v" "Dout[3]v"
"Dout<4>v" "Dout[4]v"
"Dout<5>v" "Dout[5]v"
"Dout<6>v" "Dout[6]v"
"Dout<7>v" "Dout[7]v"
"gnd!v" "cds_globals.\\gnd! v"
