HEADER
"PSFversion" "1.00"
"Row<0>v" "Row[0]v"
"Row<1>v" "Row[1]v"
"Col<0>v" "Col[0]v"
"Col<1>v" "Col[1]v"
"SenseMode<0>v" "SenseMode[0]v"
"SenseMode<1>v" "SenseMode[1]v"
"SenseMode<2>v" "SenseMode[2]v"
