HEADER
"PSFversion" "1.00"
"Din<0>v" "Din[0]v"
"Din<1>v" "Din[1]v"
"Din<2>v" "Din[2]v"
"Din<3>v" "Din[3]v"
"Din<4>v" "Din[4]v"
"Din<5>v" "Din[5]v"
"Din<6>v" "Din[6]v"
"Din<7>v" "Din[7]v"
"Din<8>v" "Din[8]v"
"Din<9>v" "Din[9]v"
"Din<10>v" "Din[10]v"
"Din<11>v" "Din[11]v"
