HEADER
"PSFversion" "1.00"
"design" "(\"Stimulator_TestBench\" \"TB_Current_Source\" \"config\" \"\")"
"simulator" "ams"
"temperature" "27"
"host" ""
"date" "Feb 22 15:44:08 2021"
"title" ""
"analysisList" "()"
END
