HEADER
"PSFversion" "1.00"
"design" "(\"EMG_202009\" \"TB_Single_Channel\" \"config\" \"\")"
"simulator" "spectre"
"temperature" "27"
"host" ""
"date" "Sep 22 15:20:55 2020"
"title" ""
"analysisList" "()"
END
