HEADER
"PSFversion" "1.00"
"ChSel_HS<0>v" "ChSel_HS[0]v"
"ChSel_HS<1>v" "ChSel_HS[1]v"
"ChSel_HS<2>v" "ChSel_HS[2]v"
"ChSel_HS<3>v" "ChSel_HS[3]v"
"ChSel_LS<0>v" "ChSel_LS[0]v"
"ChSel_LS<1>v" "ChSel_LS[1]v"
"ChSel_LS<2>v" "ChSel_LS[2]v"
"ChSel_LS<3>v" "ChSel_LS[3]v"
"CtrlHS<0>v" "CtrlHS[0]v"
"CtrlHS<1>v" "CtrlHS[1]v"
"CtrlHS<2>v" "CtrlHS[2]v"
"CtrlHS<3>v" "CtrlHS[3]v"
"CtrlHS<4>v" "CtrlHS[4]v"
"CtrlHS<5>v" "CtrlHS[5]v"
"CtrlHS<6>v" "CtrlHS[6]v"
"CtrlHS<7>v" "CtrlHS[7]v"
"CtrlLS<0>v" "CtrlLS[0]v"
"CtrlLS<1>v" "CtrlLS[1]v"
"CtrlLS<2>v" "CtrlLS[2]v"
"CtrlLS<3>v" "CtrlLS[3]v"
"CtrlLS<4>v" "CtrlLS[4]v"
"CtrlLS<5>v" "CtrlLS[5]v"
"CtrlLS<6>v" "CtrlLS[6]v"
"CtrlLS<7>v" "CtrlLS[7]v"
"Mag_ST<0>v" "Mag_ST[0]v"
"Mag_ST<1>v" "Mag_ST[1]v"
"Mag_ST<2>v" "Mag_ST[2]v"
"Mag_ST<3>v" "Mag_ST[3]v"
"Mag_ST<4>v" "Mag_ST[4]v"
"gnd!v" "cds_globals.\\gnd! v"
"vdd!v" "cds_globals.\\vdd! v"
"vdd3!v" "cds_globals.\\vdd3! v"
"vdde!v" "cds_globals.\\vdde! v"
