HEADER
"PSFversion" "1.00"
"__NEXT_FILE__" "Stimulator_TestBench_TB_4CH_ST_V2_schematic"
