HEADER
"PSFversion" "1.00"
"design" "(\"Device_Characteristics\" \"DC_BIAS_nhv\" \"schematic\" \"\")"
"simulator" "spectre"
"temperature" "27"
"host" ""
"date" "Feb 27 15:15:31 2021"
"title" ""
"analysisList" "()"
END
