HEADER
"PSFversion" "1.00"
"design" "(\"EMG_202009\" \"TB_VGA\" \"config\" \"\")"
"simulator" "ams"
"temperature" "27"
"host" ""
"date" "Sep 30 17:09:57 2020"
"title" ""
"analysisList" "()"
END
