HEADER
"PSFversion" "1.00"
"design" "(\"Device_Characteristics\" \"DC_BIAS_ped\" \"schematic\" \"\")"
"simulator" "spectre"
"temperature" "27"
"host" ""
"date" "Mar  1 10:34:27 2021"
"title" ""
"analysisList" "()"
END
