HEADER
"PSFversion" "1.00"
"M13n" "PRIMLIB_nedia_bjt_spectre"
"V0n" "analogLib_vpulse_spectre"
"R9n R8n" "analogLib_res_spectre"
"V3n V2n V1n" "analogLib_vdc_spectre"
"I10n" "LSHVT18U3VX1"
