HEADER
"PSFversion" "1.00"
"M13n M2n" "PRIMLIB_nedia_bjt_spectre"
"I0n" "analogLib_idc_spectre"
"M0n M1n" "PRIMLIB_ne3_spectre"
"V0n" "analogLib_vpulse_spectre"
"I11n" "IN_3VX1"
"R9n R8n R1n R4n" "analogLib_res_spectre"
"V3n V2n V1n" "analogLib_vdc_spectre"
"I12n" "LS_HighSide_V3_ST"
"I10n" "LSHVT18U3VX1"
"C0n" "analogLib_cap_spectre"
