HEADER
"PSFversion" "1.00"
"design" "(\"Stimulator_TestBench\" \"TB_Digital_Stimulus\" \"config\" \"\")"
"simulator" "ams"
"temperature" "27"
"host" ""
"date" "Feb 15 22:30:33 2021"
"title" ""
"analysisList" "()"
END
