HEADER
"PSFversion" "1.00"
"Col<0>v" "Col[0]v"
"Col<1>v" "Col[1]v"
"EMG_ADC_DOUT<0>v" "EMG_ADC_DOUT[0]v"
"EMG_ADC_DOUT<10>v" "EMG_ADC_DOUT[10]v"
"EMG_ADC_DOUT<11>v" "EMG_ADC_DOUT[11]v"
"EMG_ADC_DOUT<1>v" "EMG_ADC_DOUT[1]v"
"EMG_ADC_DOUT<2>v" "EMG_ADC_DOUT[2]v"
"EMG_ADC_DOUT<3>v" "EMG_ADC_DOUT[3]v"
"EMG_ADC_DOUT<4>v" "EMG_ADC_DOUT[4]v"
"EMG_ADC_DOUT<5>v" "EMG_ADC_DOUT[5]v"
"EMG_ADC_DOUT<6>v" "EMG_ADC_DOUT[6]v"
"EMG_ADC_DOUT<7>v" "EMG_ADC_DOUT[7]v"
"EMG_ADC_DOUT<8>v" "EMG_ADC_DOUT[8]v"
"EMG_ADC_DOUT<9>v" "EMG_ADC_DOUT[9]v"
"EMG_CH_SEL<0>v" "EMG_CH_SEL[0]v"
"EMG_CH_SEL<1>v" "EMG_CH_SEL[1]v"
"EMG_CH_SEL<2>v" "EMG_CH_SEL[2]v"
"EMG_CH_SEL<3>v" "EMG_CH_SEL[3]v"
"EMG_GAIN_SEL<0>v" "EMG_GAIN_SEL[0]v"
"EMG_GAIN_SEL<1>v" "EMG_GAIN_SEL[1]v"
"EMG_GAIN_SEL<2>v" "EMG_GAIN_SEL[2]v"
"Row<0>v" "Row[0]v"
"Row<1>v" "Row[1]v"
"gnd!v" "cds_globals.\\gnd! v"
