HEADER
"PSFversion" "1.00"
"CH_SEL_EMG<0>v" "CH_SEL_EMG[0]v"
"CH_SEL_EMG<1>v" "CH_SEL_EMG[1]v"
"CH_SEL_EMG<2>v" "CH_SEL_EMG[2]v"
"CH_SEL_EMG<3>v" "CH_SEL_EMG[3]v"
"Dout<0>v" "Dout[0]v"
"Dout<10>v" "Dout[10]v"
"Dout<11>v" "Dout[11]v"
"Dout<1>v" "Dout[1]v"
"Dout<2>v" "Dout[2]v"
"Dout<3>v" "Dout[3]v"
"Dout<4>v" "Dout[4]v"
"Dout<5>v" "Dout[5]v"
"Dout<6>v" "Dout[6]v"
"Dout<7>v" "Dout[7]v"
"Dout<8>v" "Dout[8]v"
"Dout<9>v" "Dout[9]v"
"gnd!v" "cds_globals.\\gnd! v"
