HEADER
"PSFversion" "1.00"
"__artInstanceTerminalDelimiter__" "."
"__artHierarchyDelimiter__" "."
"__netlister__" "AMS-UNL"
"__lib__" "VerilogAMS_Practice"
"__cell__" "TB_CCVS"
"__view__" "config"
"__topcell__" "TB_CCVS"
"__outputformat__" "sst2"
