HEADER
"PSFversion" "1.00"
"Time Stamp" "Mar 15 16:40:28 2021"
TYPE
"variable" STRUCT(
"value" FLOAT DOUBLE
) PROP( "key" "element" )
VALUE
"Ibias" "variable" ( 100e-6 ) PROP( )
"Ist" "variable" ( 30e-3 ) PROP( )
"temp" "variable" ( 27 ) PROP( )
END
