HEADER
"PSFversion" "1.00"
"CH_SEL<0>v" "CH_SEL[0]v"
"CH_SEL<1>v" "CH_SEL[1]v"
