HEADER
"PSFversion" "1.00"
"design" "(\"Stimulator_TestBench\" \"TB_Iref_imp\" \"schematic\" \"\")"
"simulator" "spectre"
"temperature" "25"
"host" ""
"date" "Mar 25 16:29:06 2021"
"title" ""
"analysisList" "()"
END
