HEADER
"PSFversion" "1.00"
"count_out<0>v" "count_out[0]v"
"count_out<1>v" "count_out[1]v"
"count_out<2>v" "count_out[2]v"
"count_out<3>v" "count_out[3]v"
"count_out<4>v" "count_out[4]v"
"gnd!v" "cds_globals.\\gnd! v"
