HEADER
"PSFversion" "1.00"
"Time Stamp" "Nov 18 00:10:19 2020"
TYPE
"variable" STRUCT(
"value" FLOAT DOUBLE
) PROP( "key" "element" )
VALUE
"temp" "variable" ( 27 ) PROP( )
END
