HEADER
"PSFversion" "1.00"
"av" "(FUNCTION or(mappedRoot(\".2@index\") mappedRoot(\".a\")))v"
"av" ".av"
"av" ".\\2 v"
"bv" "(FUNCTION or(mappedRoot(\".3@index\") mappedRoot(\".b\")))v"
"bv" ".bv"
"bv" ".\\3 v"
"outv" "(FUNCTION or(mappedRoot(\".1@index\") mappedRoot(\".out\")))v"
"outv" ".outv"
"outv" ".\\1 v"
"gndv" ".gndv"
"vddv" ".vddv"
"MN1n MN2n" "PRIMLIB_ne_spectre"
"MP1n MP2n" "PRIMLIB_pe_spectre"
