HEADER
"PSFversion" "1.00"
"Ist_ch1v" ".Ist_ch1v"
"Ist_ch2v" ".Ist_ch2v"
"Ist_ch3v" ".Ist_ch3v"
"Ist_ch4v" ".Ist_ch4v"
"Istv" ".Istv"
"CH_SEL<0>v" ".CH_SEL[0]v"
"CH_SEL<1>v" ".CH_SEL[1]v"
"Vddav" ".Vddav"
"Vssav" ".Vssav"
