HEADER
"PSFversion" "1.00"
"C0n C1n C2n C3n C4n C5n C6n C7n" "analogLib_cap_spectre"
"I11n" "analogLib_idc_spectre"
"R0n R1n R10n R11n R2n R3n R4n R5n R6n R7n R8n R9n" "analogLib_res_spectre"
"V0n V3n V8n V9n" "analogLib_vpulse_spectre"
"V1n V10n V11n V12n V13n V2n V5n V6n V7n" "analogLib_vdc_spectre"
"I0n I1n I3n I4n" "Stimulator_Model_H_Bridge_verilogams"
"I10n" "Stimulator_Model_Current_Source_verilogams"
"I2n" "Stimulator_Model_Current_Mirror_verilogams"
"I6n" "Stimulator_Model_CH_Sel_MUX_verilogams"
