HEADER
"PSFversion" "1.00"
"design" "(\"EMG_202009\" \"TB_BPF\" \"config\" \"\")"
"simulator" "ams"
"temperature" "27"
"host" ""
"date" "Oct 13 23:48:21 2020"
"title" ""
"analysisList" "()"
END
