HEADER
"PSFversion" "1.00"
"Time Stamp" "Oct 13 23:48:21 2020"
TYPE
"variable" STRUCT(
"value" FLOAT DOUBLE
) PROP( "key" "element" )
VALUE
"temp" "variable" ( 27 ) PROP( )
END
