HEADER
"PSFversion" "1.00"
"Time Stamp" "Apr  6 11:58:14 2021"
TYPE
"variable" STRUCT(
"value" FLOAT DOUBLE
) PROP( "key" "element" )
VALUE
"Rload" "variable" ( 100 ) PROP( )
"temp" "variable" ( 27 ) PROP( )
END
