HEADER
"PSFversion" "1.00"
"simulator" "spectre"
"version" "18.1.0.516.isr12"
"date" "1:44:22 PM, Thur Mar 25, 2021"
"design" "// Generated for: spectre"
"analysis type" "info.subckts"
"analysis name" "subckts"
"analysis description" "Circuit Information"
"xVecSorted" "unknown"
"tolerance.relative" 0.000100000
TYPE
"subckt" STRUCT(
"subckt_params" STRING *
"subckt_terminals" STRING *
"subckt_instances" STRING *
) PROP(
"key" "sub"
)
VALUE
"dnhpw" "subckt" (
""
""
""
)
"nei" "subckt" (
""
""
""
)
"rdn" "subckt" (
""
""
""
)
"nedia" "subckt" (
""
""
""
)
"neli_m_6" "subckt" (
""
""
""
)
"ne3i_m_6" "subckt" (
""
""
""
)
"pel_5" "subckt" (
""
""
""
)
"qnl_pe" "subckt" (
""
""
""
)
"pe3lni_5" "subckt" (
""
""
""
)
"qpl_pf" "subckt" (
""
""
""
)
"rm4" "subckt" (
""
""
""
)
"cmm4t" "subckt" (
""
""
""
)
"dbn" "subckt" (
""
""
""
)
"csf3a" "subckt" (
""
""
""
)
"dn3" "subckt" (
""
""
""
)
"nd3" "subckt" (
""
""
""
)
"dpwhn" "subckt" (
""
""
""
)
"nhvd" "subckt" (
""
""
""
)
"dphob" "subckt" (
""
""
""
)
"ne" "subckt" (
""
""
""
)
"ped2_bjt" "subckt" (
""
""
""
)
"phv" "subckt" (
""
""
""
)
"LS_HighSide_V3_ST" "subckt" (
""
"0 in out vdd3! vdde! vddh inh_ground_gnd inh_power_vdd3 inh_power_vdde $ 0"
"I36"
)
"dn3dpl" "subckt" (
""
""
""
)
"mosvc3" "subckt" (
""
""
""
)
"qnvb" "subckt" (
""
""
""
)
"mosvci_m" "subckt" (
""
""
""
)
"ne3lnai" "subckt" (
""
""
""
)
"dphocfp" "subckt" (
""
""
""
)
"nedi_bjt" "subckt" (
""
""
""
)
"rnw_scr" "subckt" (
""
""
""
)
"dpol" "subckt" (
""
""
""
)
"csandwt4" "subckt" (
""
""
""
)
"dhpw" "subckt" (
""
""
""
)
"nesvti_6" "subckt" (
""
""
""
)
"dphoa" "subckt" (
""
""
""
)
"nma_bjt" "subckt" (
""
""
""
)
"nn3" "subckt" (
""
""
""
)
"cdmmh4" "subckt" (
""
""
""
)
"ctmm5" "subckt" (
""
""
""
)
"dwhn" "subckt" (
""
""
""
)
"dphodfp" "subckt" (
""
""
""
)
"dsba" "subckt" (
""
""
""
)
"pma_bjt" "subckt" (
""
""
""
)
"pmmc_bjt" "subckt" (
""
""
""
)
"ctmmh5" "subckt" (
""
""
""
)
"dn" "subckt" (
""
""
""
)
"nhvd_bjt" "subckt" (
""
""
""
)
"pesvt_5" "subckt" (
""
""
""
)
"qpl_pe" "subckt" (
""
""
""
)
"rpp1k1_3" "subckt" (
""
""
""
)
"ped_bjt" "subckt" (
"adio ad extlay xf_subext par1 pd w adl pdio coselfheat l pdl"
"d g s sb"
"M25 M24 M23 M12 M11 M15 M18 M17 M14 I33.M1"
)
"pmc_bjt" "subckt" (
""
""
""
)
"dhnw" "subckt" (
""
""
""
)
"dp3" "subckt" (
""
""
""
)
"nhhvd" "subckt" (
""
""
""
)
"dphodfp_an1" "subckt" (
""
""
""
)
"cdmm4t" "subckt" (
""
""
""
)
"ne3" "subckt" (
"psl wcd_au0 ad nrs nrsl xf_subext as par1 pd w adl ps nrdl l wcd_avt asl nrd pdl"
"d g s b"
"M43 M37 M28 M53 M26 M40 M13 I18.invr_1.MN1 I31.invr_1.MN1 I3.invr_1.MN1 I5.invr_1.MN1 I7.invr_1.MN1 I9.invr_1.MN1 I34.M3 I34.M5 I34.M7 I34.M1 I27.M3 I27.M5 I27.M7 I27.M1 I17.M3 I17.M5 I17.M7 I17.M1 I0.M3 I0.M5 I0.M7 I0.M1 I30.M3 I30.M5 I30.M7 I30.M1 I4.M3 I4.M5 I4.M7 I4.M1 I6.M3 I6.M5 I6.M7 I6.M1 I29.M3 I29.M5 I29.M7 I29.M1 I33.I0.M3 I33.I0.M5 I33.I0.M7 I33.I0.M1 I36.I10.M3 I36.I10.M5 I36.I10.M7 I36.I10.M1"
)
"ne3lnai_m_6" "subckt" (
""
""
""
)
"nhhv_bjt" "subckt" (
""
""
""
)
"dnn3" "subckt" (
""
""
""
)
"dphoc" "subckt" (
""
""
""
)
"rnw3_scr" "subckt" (
""
""
""
)
"cmm3" "subckt" (
""
""
""
)
"csf2p" "subckt" (
""
""
""
)
"dphnw" "subckt" (
""
""
""
)
"nei_m_6" "subckt" (
""
""
""
)
"pei" "subckt" (
""
""
""
)
"qpl_pa" "subckt" (
""
""
""
)
"csft5" "subckt" (
""
""
""
)
"jf_nmma" "subckt" (
""
""
""
)
"pe3lni" "subckt" (
""
""
""
)
"cpodhv" "subckt" (
""
""
""
)
"csf3" "subckt" (
""
""
""
)
"mosvc3i" "subckt" (
""
""
""
)
"rmtpl" "subckt" (
""
""
""
)
"dapda" "subckt" (
""
""
""
)
"tag_25v" "subckt" (
""
""
""
)
"cdmm4" "subckt" (
""
""
""
)
"ne3lna" "subckt" (
""
""
""
)
"dpdwhn" "subckt" (
""
""
""
)
"qpl_pc" "subckt" (
""
""
""
)
"nd3i" "subckt" (
""
""
""
)
"pmma_bjt" "subckt" (
""
""
""
)
"nd3i_6" "subckt" (
""
""
""
)
"pe3lnai_m_5" "subckt" (
""
""
""
)
"qpvc3" "subckt" (
""
""
""
)
"qpvascr" "subckt" (
""
""
""
)
"nhv" "subckt" (
""
""
""
)
"qpl_pb" "subckt" (
""
""
""
)
"rdp_esd" "subckt" (
""
""
""
)
"rnp1h_3" "subckt" (
""
""
""
)
"dphod_an2" "subckt" (
""
""
""
)
"csft5a" "subckt" (
"mfak perimeter par1 area wcd_AC"
"n1 n2"
"C1 C5"
)
"rpp1s_3" "subckt" (
""
""
""
)
"ddnw" "subckt" (
""
""
""
)
"dapda_cat" "subckt" (
""
""
""
)
"pe3ln" "subckt" (
""
""
""
)
"dnp20" "subckt" (
""
""
""
)
"pe3lni_m_5" "subckt" (
""
""
""
)
"nmma_bjt" "subckt" (
""
""
""
)
"qnvc_pnp" "subckt" (
""
""
""
)
"tag_60v" "subckt" (
""
""
""
)
"nedi" "subckt" (
""
""
""
)
"csft6a" "subckt" (
""
""
""
)
"qpv_pa" "subckt" (
""
""
""
)
"dpdd_scr" "subckt" (
""
""
""
)
"nesvti_m_6" "subckt" (
""
""
""
)
"csf3p" "subckt" (
""
""
""
)
"qpva3" "subckt" (
""
""
""
)
"phv_bjt" "subckt" (
""
""
""
)
"dipdnwmv" "subckt" (
""
""
""
)
"ddnwmv" "subckt" (
""
""
""
)
"rdn3" "subckt" (
""
""
""
)
"nesvt" "subckt" (
""
""
""
)
"nmc_bjt" "subckt" (
""
""
""
)
"nd3i_m_6" "subckt" (
""
""
""
)
"cmmh4t" "subckt" (
""
""
""
)
"dsb" "subckt" (
""
""
""
)
"qnl_pc" "subckt" (
""
""
""
)
"rdn_esd" "subckt" (
""
""
""
)
"dphod_an1" "subckt" (
""
""
""
)
"rdnwmv" "subckt" (
""
""
""
)
"rm1" "subckt" (
""
""
""
)
"dphoc_cat" "subckt" (
""
""
""
)
"dpp20" "subckt" (
""
""
""
)
"mosvc3i_m" "subckt" (
""
""
""
)
"nhhvd_bjt" "subckt" (
""
""
""
)
"qpv_pd" "subckt" (
""
""
""
)
"rpp1_3" "subckt" (
""
""
""
)
"cmmh6t" "subckt" (
""
""
""
)
"csandwt5" "subckt" (
""
""
""
)
"nmmc_bjt" "subckt" (
""
""
""
)
"dphodfp_an2" "subckt" (
""
""
""
)
"csf5a" "subckt" (
""
""
""
)
"rnw" "subckt" (
""
""
""
)
"IN_3VX2" "subckt" (
""
"A Q inh_ground_gnd inh_power_vdd3"
"I18 I31 I3 I5 I7 I9"
)
"qpvhbscr" "subckt" (
""
""
""
)
"rdp_io" "subckt" (
""
""
""
)
"dphoc0" "subckt" (
""
""
""
)
"ped2" "subckt" (
""
""
""
)
"rm3" "subckt" (
""
""
""
)
"dphod" "subckt" (
""
""
""
)
"rdp" "subckt" (
""
""
""
)
"cpodhv_i" "subckt" (
""
""
""
)
"cdmmh4t" "subckt" (
""
""
""
)
"pfuse" "subckt" (
""
""
""
)
"nelnai_6" "subckt" (
""
""
""
)
"nmmc" "subckt" (
""
""
""
)
"csandwt3" "subckt" (
""
""
""
)
"rpp1" "subckt" (
""
""
""
)
"pe3i_m_5" "subckt" (
""
""
""
)
"rpp1k1" "subckt" (
"tc2r mf pm pmi wcd_AR r0 par1 w rsh tc1r pmc weff l"
"n1 n2 0"
"R2 R17 R8 R16 R18 R9 R1 I33.R2 I33.R0 I33.R1 I33.R3 I36.R0 I36.R1"
)
"pel" "subckt" (
""
""
""
)
"nesvti" "subckt" (
""
""
""
)
"pei_5" "subckt" (
""
""
""
)
"rdp3" "subckt" (
""
""
""
)
"pe3lna_5" "subckt" (
""
""
""
)
"neli_6" "subckt" (
""
""
""
)
"dphod0" "subckt" (
""
""
""
)
"dspada0" "subckt" (
""
""
""
)
"jf_pmma" "subckt" (
""
""
""
)
"invrv3" "subckt" (
"sx lc GT_PDL GT_PDW GT_PUW GT_PUL"
"in out inh_ground_gnd inh_power_vdd3"
"I18.invr_1 I31.invr_1 I3.invr_1 I5.invr_1 I7.invr_1 I9.invr_1"
)
"dn3sci" "subckt" (
""
""
""
)
"cmmh4" "subckt" (
""
""
""
)
"dspada" "subckt" (
""
""
""
)
"phhv_bjt" "subckt" (
""
""
""
)
"cmmh3" "subckt" (
""
""
""
)
"pesvti_m_5" "subckt" (
""
""
""
)
"dpdnw" "subckt" (
""
""
""
)
"rpp1s" "subckt" (
""
""
""
)
"qpv_pc" "subckt" (
"par1 area le"
"c b e"
"M25.xpnp M24.xpnp M23.xpnp M12.xpnp M11.xpnp M15.xpnp M18.xpnp M17.xpnp M14.xpnp I33.M1.xpnp"
)
"qpvb" "subckt" (
""
""
""
)
"qnvc_npn" "subckt" (
""
""
""
)
"csf4a" "subckt" (
""
""
""
)
"csf5" "subckt" (
""
""
""
)
"dphoc0_cat" "subckt" (
""
""
""
)
"dphod0_an2" "subckt" (
""
""
""
)
"pe3i_5" "subckt" (
""
""
""
)
"ped" "subckt" (
""
""
""
)
"dnhpwa" "subckt" (
""
""
""
)
"dphocfp_cat" "subckt" (
""
""
""
)
"cmm6t" "subckt" (
""
""
""
)
"qnvc" "subckt" (
""
""
""
)
"dnw3" "subckt" (
""
""
""
)
"nei_6" "subckt" (
""
""
""
)
"rnp1" "subckt" (
""
""
""
)
"nmma" "subckt" (
""
""
""
)
"csf4" "subckt" (
""
""
""
)
"dipdnw" "subckt" (
""
""
""
)
"cmm5t" "subckt" (
""
""
""
)
"pei_m_5" "subckt" (
""
""
""
)
"cmmh5t" "subckt" (
""
""
""
)
"cpod_i" "subckt" (
""
""
""
)
"dapda0" "subckt" (
""
""
""
)
"pma" "subckt" (
""
""
""
)
"LS_LowSide_V2_ST" "subckt" (
""
"0 in out vdd3! vdde! vddh inh_ground_gnd inh_power_vdd3 inh_power_vdde $ 0"
"I33"
)
"ne3i_6" "subckt" (
""
""
""
)
"ne3i" "subckt" (
""
""
""
)
"nelna" "subckt" (
""
""
""
)
"dscidnwmv" "subckt" (
""
""
""
)
"qpva" "subckt" (
""
""
""
)
"dpdddnw" "subckt" (
""
""
""
)
"csft4a" "subckt" (
""
""
""
)
"peli_5" "subckt" (
""
""
""
)
"qnl_pb" "subckt" (
""
""
""
)
"nhv_bjt" "subckt" (
""
""
""
)
"pe3ln_5" "subckt" (
""
""
""
)
"qpvb3" "subckt" (
""
""
""
)
"dpdnwmv" "subckt" (
""
""
""
)
"csft6" "subckt" (
""
""
""
)
"peli" "subckt" (
""
""
""
)
"qpvhscr" "subckt" (
""
""
""
)
"pmma" "subckt" (
""
""
""
)
"qnvb_npn" "subckt" (
""
""
""
)
"mosvc" "subckt" (
""
""
""
)
"neli" "subckt" (
""
""
""
)
"qnvb_pnp" "subckt" (
""
""
""
)
"LSHVT18U3VX1" "subckt" (
""
"A Q inh_ground_gnd inh_power_vdd3 inh_power_vdde"
"I34 I27 I17 I0 I30 I4 I6 I29 I33.I0 I36.I10"
)
"qpvc" "subckt" (
""
""
""
)
"csft4" "subckt" (
""
""
""
)
"nelnai" "subckt" (
""
""
""
)
"nel" "subckt" (
""
""
""
)
"pesvti_5" "subckt" (
""
""
""
)
"qpv_pf" "subckt" (
""
""
""
)
"rm5" "subckt" (
""
""
""
)
"nedia_bjt" "subckt" (
"adio extlay xf_subext par1 w adl pdio coselfheat l pdl"
"d g s sb"
"M20 M19 M2 M1 M4 M6 M7 M5 M8 M21 M16 M9 M10 M0 M3 I33.M0 I36.M13"
)
"pe3lnai_5" "subckt" (
""
""
""
)
"qpl_pd" "subckt" (
""
""
""
)
"nmmd" "subckt" (
""
""
""
)
"cmm4" "subckt" (
""
""
""
)
"qpv_pb" "subckt" (
"par1 area le"
"c b e"
"M20.xpnp M19.xpnp M2.xpnp M1.xpnp M4.xpnp M6.xpnp M7.xpnp M5.xpnp M8.xpnp M21.xpnp M16.xpnp M9.xpnp M10.xpnp M0.xpnp M3.xpnp I33.M0.xpnp I36.M13.xpnp"
)
"mosvci" "subckt" (
""
""
""
)
"rmtp" "subckt" (
""
""
""
)
"dspada_cat" "subckt" (
""
""
""
)
"nelnai_m_6" "subckt" (
""
""
""
)
"pe" "subckt" (
""
""
""
)
"qnl_pa" "subckt" (
""
""
""
)
"pmmc" "subckt" (
""
""
""
)
"qpv_pe" "subckt" (
""
""
""
)
"dnw" "subckt" (
""
""
""
)
"pmc" "subckt" (
""
""
""
)
"dphnwa" "subckt" (
""
""
""
)
"ctmmh5t" "subckt" (
""
""
""
)
"ctmm5t" "subckt" (
""
""
""
)
"nmc" "subckt" (
""
""
""
)
"cpod" "subckt" (
""
""
""
)
"ne3lnai_6" "subckt" (
""
""
""
)
"nhhv" "subckt" (
""
""
""
)
"rnp1h" "subckt" (
""
""
""
)
"nmmd_bjt" "subckt" (
""
""
""
)
"dp" "subckt" (
""
""
""
)
"phhv" "subckt" (
""
""
""
)
"pe3" "subckt" (
"psl wcd_au0 ad nrs nrsl xf_subext as par1 pd w adl ps nrdl l wcd_avt asl nrd pdl"
"d g s b"
"M50 M41 M38 M35 M32 M22 M48 M54 M51 M42 M39 M36 M33 M29 M49 M44 M45 M46 M47 M31 M52 I18.invr_1.MP1 I31.invr_1.MP1 I3.invr_1.MP1 I5.invr_1.MP1 I7.invr_1.MP1 I9.invr_1.MP1 I34.M6 I34.M8 I34.M9 I34.M0 I34.M2 I34.M4 I27.M6 I27.M8 I27.M9 I27.M0 I27.M2 I27.M4 I17.M6 I17.M8 I17.M9 I17.M0 I17.M2 I17.M4 I0.M6 I0.M8 I0.M9 I0.M0 I0.M2 I0.M4 I30.M6 I30.M8 I30.M9 I30.M0 I30.M2 I30.M4 I4.M6 I4.M8 I4.M9 I4.M0 I4.M2 I4.M4 I6.M6 I6.M8 I6.M9 I6.M0 I6.M2 I6.M4 I29.M6 I29.M8 I29.M9 I29.M0 I29.M2 I29.M4 I33.I0.M6 I33.I0.M8 I33.I0.M9 I33.I0.M0 I33.I0.M2 I33.I0.M4 I36.I10.M6 I36.I10.M8 I36.I10.M9 I36.I10.M0 I36.I10.M2 I36.I10.M4"
)
"qnva" "subckt" (
""
""
""
)
"qnl_pf" "subckt" (
""
""
""
)
"dpndf" "subckt" (
""
""
""
)
"dphod0_an1" "subckt" (
""
""
""
)
"peli_m_5" "subckt" (
""
""
""
)
"dndf" "subckt" (
""
""
""
)
"rnp1_3" "subckt" (
""
""
""
)
"pe3_5" "subckt" (
""
""
""
)
"pesvt" "subckt" (
""
""
""
)
"pe3i" "subckt" (
""
""
""
)
"s_res" "subckt" (
""
""
""
)
"dnpdd_scr" "subckt" (
""
""
""
)
"qnl_pd" "subckt" (
""
""
""
)
"nma" "subckt" (
""
""
""
)
"pesvti" "subckt" (
""
""
""
)
"rm2" "subckt" (
""
""
""
)
"ddpldnw" "subckt" (
""
""
""
)
"pe3lna" "subckt" (
""
""
""
)
"pe_5" "subckt" (
""
""
""
)
"rnw3" "subckt" (
""
""
""
)
"pmb" "subckt" (
""
""
""
)
"pe3lnai" "subckt" (
""
""
""
)
END
