HEADER
"PSFversion" "1.00"
"Voutv" ".Voutv"
"Vinv" ".Vinv"
"Vddav" ".Vddav"
"Vssav" ".Vssav"
