HEADER
"PSFversion" "1.00"
"design" "(\"Stimulator_TestBench\" \"TB_Single_CH\" \"config\" \"\")"
"simulator" "ams"
"temperature" "27"
"host" ""
"date" "Feb 11 16:11:25 2021"
"title" ""
"analysisList" "()"
END
