HEADER
"PSFversion" "1.00"
"Time Stamp" "Jan 21 14:03:02 2021"
TYPE
"variable" STRUCT(
"value" FLOAT DOUBLE
) PROP( "key" "element" )
VALUE
"temp" "variable" ( 27 ) PROP( )
END
