HEADER
"PSFversion" "1.00"
"Av" "(FUNCTION or(mappedRoot(\".2@index\") mappedRoot(\".A\")))v"
"Av" ".Av"
"Av" ".\\2 v"
"Qv" "(FUNCTION or(mappedRoot(\".1@index\") mappedRoot(\".Q\")))v"
"Qv" ".Qv"
"Qv" ".\\1 v"
"vddev" ".vddev"
"vdd3v" ".vdd3v"
"gndv" ".gndv"
"M0n M2n M4n M6n M8n M9n" "PRIMLIB_pe3_spectre"
"M1n M3n M5n M7n" "PRIMLIB_ne3_spectre"
