HEADER
"PSFversion" "1.00"
"design" "(\"EMG_202009\" \"TB_Mux4\" \"config\" \"\")"
"simulator" "ams"
"temperature" "27"
"host" ""
"date" "Sep 23 14:09:37 2020"
"title" ""
"analysisList" "()"
END
