HEADER
"PSFversion" "1.00"
"Time Stamp" "Sep 22 15:38:50 2020"
TYPE
"variable" STRUCT(
"value" FLOAT DOUBLE
) PROP( "key" "element" )
VALUE
"temp" "variable" ( 27 ) PROP( )
END
