HEADER
"PSFversion" "1.00"
"outnv" ".outnv"
"outpv" ".outpv"
"CLKv" ".CLKv"
"VDDv" ".VDDv"
"VSSv" ".VSSv"
"in1v" ".in1v"
"in2v" ".in2v"
