HEADER
"PSFversion" "1.00"
"M0n" "PRIMLIB_nedia_bjt_spectre"
"R2n R0n R1n R3n" "PRIMLIB_rpp1k1_spectre"
"M1n" "PRIMLIB_ped_bjt_spectre"
"I0n" "LSHVT18U3VX1"
"gnd!v" ":1v"
"inv" ":2v"
"outv" ":3v"
"vdd3!v" ":4v"
"vdde!v" ":5v"
"vddhv" ":6v"
"[@ground_gnd:%:gnd!]v" ":7v"
"[@power_vdd3:%:vdd3!]v" ":8v"
"[@power_vdde:%:vdde!]v" ":9v"
