HEADER
"PSFversion" "1.00"
"vdd3!v" "vdd3!v"
"vdde!v" "vdde!v"
"gnd!v" "0v"
