HEADER
"PSFversion" "1.00"
"design" "(\"Stimulator_TestBench\" \"TB_OneChannel_imp\" \"schematic\" \"\")"
"simulator" "spectre"
"temperature" "27"
"host" ""
"date" "Mar 25 12:50:07 2021"
"title" ""
"analysisList" "()"
END
