HEADER
"PSFversion" "1.00"
"Av" ".Av"
"Qv" ".Qv"
