HEADER
"PSFversion" "1.00"
"Gain_Sel<0>v" "Gain_Sel[0]v"
"Gain_Sel<1>v" "Gain_Sel[1]v"
"Gain_Sel<2>v" "Gain_Sel[2]v"
"Mag<0>v" "Mag[0]v"
"Mag<1>v" "Mag[1]v"
"Mag<2>v" "Mag[2]v"
"Mag<3>v" "Mag[3]v"
"Mag<4>v" "Mag[4]v"
"gnd!v" "cds_globals.\\gnd! v"
