HEADER
"PSFversion" "1.00"
"C1n C2n C3n" "analogLib_cap_spectre"
"I36n I5n" "analogLib_idc_spectre"
"R3n R4n R5n R6n R9n" "analogLib_res_spectre"
"V0n V19n V2n V25n V26n V27n V28n V29n V3n V4n V6n" "analogLib_vdc_spectre"
"I0n" "Stimulator_IMP_SingleChannel_ST_schematic"
"I1n" "EMG_Model_AFE_EMG_schematic"
"I33n I35n" "Stimulator_IMP_Decoder3_8_functional"
"I34n" "Stimulator_IMP_Digital_Stimulus_V2_ST_functional"
