HEADER
"PSFversion" "1.00"
"C1n C2n C3n" "analogLib_cap_spectre"
"I3n I5n" "analogLib_idc_spectre"
"R1n R2n R3n R4n R5n R6n" "analogLib_res_spectre"
"V0n V3n" "analogLib_vpulse_spectre"
"V1n V10n V11n V12n V15n V16n V17n V2n V4n V5n V6n V8n V9n" "analogLib_vdc_spectre"
"V7n" "analogLib_vsin_spectre"
"I0n" "Stimulator_Model_Stimulator_Single_CH_schematic"
"I1n" "EMG_Model_AFE_EMG_schematic"
