HEADER
"PSFversion" "1.00"
"__NEXT_FILE__" "EMG_NMES_TestBench_Sim_StimulusArtifact_schematic"
