HEADER
"PSFversion" "1.00"
"sel<0>v" "sel[0]v"
"sel<1>v" "sel[1]v"
"sel<2>v" "sel[2]v"
"sel<3>v" "sel[3]v"
