HEADER
"PSFversion" "1.00"
"gnd!v" "cds_globals.\\gnd! v"
"inh_ground_gnd_gnd!v" "\\gnd! v"
"inh_power_vdd_vdd!v" "\\vdd! v"
"vdd!v" "cds_globals.\\vdd! v"
"vdd3!v" "cds_globals.\\vdd3! v"
"vdde!v" "cds_globals.\\vdde! v"
