HEADER
"PSFversion" "1.00"
"design" "(\"Stimulator_TestBench\" \"TB_Multi_CH\" \"config\" \"\")"
"simulator" "ams"
"temperature" "27"
"host" ""
"date" "Jan 21 14:14:09 2021"
"title" ""
"analysisList" "()"
END
