HEADER
"PSFversion" "1.00"
"design" "(\"EMG_TestBench\" \"TB_BPF_EMG\" \"config\" \"\")"
"simulator" "ams"
"temperature" "27"
"host" ""
"date" "Nov 16 22:21:37 2020"
"title" ""
"analysisList" "()"
END
