HEADER
"PSFversion" "1.00"
"__artInstanceTerminalDelimiter__" "."
"__artHierarchyDelimiter__" "."
"__netlister__" "AMS-UNL"
"__lib__" "EMG_202009"
"__cell__" "TB_HDEMG_AFE_16"
"__view__" "config"
"__topcell__" "TB_HDEMG_AFE_16"
"__outputformat__" "sst2"
