HEADER
"PSFversion" "1.00"
"PLUSv" ":1v"
"MINUSv" ":2v"
"(op ?)p" "cap v"
"(op cap)p" "OP( mappedRoot(\".c1\") \"cap\")"
"(op v)p" "OP( mappedRoot(\".c1\") \"v\")"
"(mp ?)p" "c area perim"
"(mp c)p" "MP( mappedRoot(\".c1\") \"c\")"
"(mp area)p" "MP( mappedRoot(\".c1\") \"area\")"
"(mp perim)p" "MP( mappedRoot(\".c1\") \"perim\")"
"(opt ?)p" "cap v"
"(opt cap)p" "OPT( mappedRoot(\".c1\") \"cap\")"
"(opt v)p" "OPT( mappedRoot(\".c1\") \"v\")"
