HEADER
"PSFversion" "1.00"
"design" "(\"EMG_202009\" \"TB_SwitchArray\" \"config\" \"\")"
"simulator" "ams"
"temperature" "27"
"host" ""
"date" "Oct 14 14:51:43 2020"
"title" ""
"analysisList" "()"
END
