HEADER
"PSFversion" "1.00"
"design" "(\"Stimulator_TestBench\" \"LS_LowSide_V2_ST\" \"schematic\" \"\")"
"simulator" "spectre"
"temperature" "27"
"host" ""
"date" "Mar 15 15:13:05 2021"
"title" ""
"analysisList" "()"
END
