HEADER
"PSFversion" "1.00"
"Time Stamp" "Mar 25 16:28:52 2021"
TYPE
"variable" STRUCT(
"value" FLOAT DOUBLE
) PROP( "key" "element" )
VALUE
"vdd" "variable" ( 3.3 ) PROP( )
"temp" "variable" ( 25 ) PROP( )
END
