HEADER
"PSFversion" "1.00"
"design" "(\"EMG_TestBench\" \"TB_MultiChannel\" \"config\" \"\")"
"simulator" "ams"
"temperature" "27"
"host" ""
"date" "Nov 18 23:55:18 2020"
"title" ""
"analysisList" "()"
END
