HEADER
"PSFversion" "1.00"
"design" "(\"EMG_TestBench\" \"TB_MultiChannel\" \"config\" \"\")"
"simulator" "ams"
"temperature" "27"
"host" ""
"date" "Feb 10 14:07:03 2021"
"title" ""
"analysisList" "()"
END
