HEADER
"PSFversion" "1.00"
"Time Stamp" "Feb 19 18:06:00 2021"
TYPE
"variable" STRUCT(
"value" FLOAT DOUBLE
) PROP( "key" "element" )
VALUE
"temp" "variable" ( 27 ) PROP( )
END
