HEADER
"PSFversion" "1.00"
"Time Stamp" "Nov 16 22:57:37 2020"
TYPE
"variable" STRUCT(
"value" FLOAT DOUBLE
) PROP( "key" "element" )
VALUE
"temp" "variable" ( 27 ) PROP( )
END
