HEADER
"PSFversion" "1.00"
"design" "(\"EMG_202009\" \"TB_IA\" \"config\" \"\")"
"simulator" "ams"
"temperature" "27"
"host" ""
"date" "Sep 27 23:47:38 2020"
"title" ""
"analysisList" "()"
END
