HEADER
"PSFversion" "1.00"
"M20n M19n M2n M1n M4n M6n M7n M5n M8n M21n M16n M9n M10n M0n M3n" "PRIMLIB_nedia_bjt_spectre"
"V10n V1n" "analogLib_vpulse_spectre"
"M25n M24n M23n M12n M11n M15n M18n M17n M14n" "PRIMLIB_ped_bjt_spectre"
"C1n C5n" "PRIMLIB_csft5a_spectre"
"M43n M37n M28n M53n M26n M40n M13n" "PRIMLIB_ne3_spectre"
"M50n M41n M38n M35n M32n M22n M48n M54n M51n M42n M39n M36n M33n M29n M49n M44n M45n M46n M47n M31n M52n" "PRIMLIB_pe3_spectre"
"V0n V9n V8n V7n V6n V5n V2n V4n V3n" "analogLib_vdc_spectre"
"I18n I31n I3n I5n I7n I9n" "IN_3VX2"
"I34n I27n I17n I0n I30n I4n I6n I29n" "LSHVT18U3VX1"
"R2n R17n R8n R16n R18n R9n R1n" "PRIMLIB_rpp1k1_spectre"
"I33n" "LS_LowSide_V2_ST"
"R0n" "analogLib_res_spectre"
"I36n" "LS_HighSide_V3_ST"
