HEADER
"PSFversion" "1.00"
"design" "(\"EMG_TestBench\" \"TB_AFE_EMG\" \"config\" \"\")"
"simulator" "ams"
"temperature" "27"
"host" ""
"date" "Nov 16 23:15:30 2020"
"title" ""
"analysisList" "()"
END
