HEADER
"PSFversion" "1.00"
"design" "(\"EMG_202009\" \"TB_ADC\" \"config\" \"\")"
"simulator" "ams"
"temperature" "27"
"host" ""
"date" "Sep 24 13:16:23 2020"
"title" ""
"analysisList" "()"
END
