HEADER
"PSFversion" "1.00"
"Time Stamp" "Sep 24 13:16:23 2020"
TYPE
"variable" STRUCT(
"value" FLOAT DOUBLE
) PROP( "key" "element" )
VALUE
"temp" "variable" ( 27 ) PROP( )
END
