HEADER
"PSFversion" "1.00"
"Time Stamp" "Apr  7 14:09:44 2021"
TYPE
"variable" STRUCT(
"value" FLOAT DOUBLE
) PROP( "key" "element" )
VALUE
"Rload" "variable" ( 375 ) PROP( )
"temp" "variable" ( 27 ) PROP( )
END
