HEADER
"PSFversion" "1.00"
"__NEXT_FILE__" "TB_HighSide_LS_SW_DCop"
