HEADER
"PSFversion" "1.00"
"design" "(\"IL2239_SAR_ADC\" \"SAR4_ADC_sim\" \"config\" \"\")"
"simulator" "ams"
"temperature" "27"
"host" ""
"date" "Apr 14 23:09:51 2021"
"title" ""
"analysisList" "()"
END
