HEADER
"PSFversion" "1.00"
"Time Stamp" "Feb 22 14:59:12 2021"
TYPE
"variable" STRUCT(
"value" FLOAT DOUBLE
) PROP( "key" "element" )
VALUE
"temp" "variable" ( 27 ) PROP( )
END
