HEADER
"PSFversion" "1.00"
"M21n M16n M8n M7n M6n M5n M4n M0n M3n" "PRIMLIB_nedia_bjt_spectre"
"R0n" "analogLib_res_spectre"
"M12n M11n M10n M9n M1n M2n" "PRIMLIB_ped_bjt_spectre"
"V6n V4n V3n V1n V0n" "analogLib_vdc_spectre"
"I22n" "analogLib_idc_spectre"
"M53n M43n M40n M37n M28n M26n M13n" "PRIMLIB_ne3_spectre"
"M54n M52n M51n M50n M44n M42n M41n M45n M39n M38n M46n M36n M35n M47n M33n M32n M31n M29n M22n M49n M48n" "PRIMLIB_pe3_spectre"
"I17n" "LSHVT18U3VX1"
"I18n" "IN_3VX1"
"R1n" "PRIMLIB_rpp1k1_spectre"
