HEADER
"PSFversion" "1.00"
"design" "(\"Device_Characteristics\" \"DC_BIAS_ne3\" \"schematic\" \"\")"
"simulator" "spectre"
"temperature" "27"
"host" ""
"date" "Mar 12 15:38:05 2021"
"title" ""
"analysisList" "()"
END
