HEADER
"PSFversion" "1.00"
"design" "(\"Stimulator_TestBench\" \"TB_OneChannel_DC_imp\" \"schematic\" \"\")"
"simulator" "spectre"
"temperature" "27"
"host" ""
"date" "Apr  5 14:59:12 2021"
"title" ""
"analysisList" "()"
END
