HEADER
"PSFversion" "1.00"
"CH_SEL_EMG<0>v" "CH_SEL_EMG[0]v"
"CH_SEL_EMG<1>v" "CH_SEL_EMG[1]v"
"CH_SEL_EMG<2>v" "CH_SEL_EMG[2]v"
"CH_SEL_EMG<3>v" "CH_SEL_EMG[3]v"
"CH_SEL_ST<0>v" "CH_SEL_ST[0]v"
"CH_SEL_ST<1>v" "CH_SEL_ST[1]v"
"Fsel_BioZ<0>v" "Fsel_BioZ[0]v"
"Fsel_BioZ<1>v" "Fsel_BioZ[1]v"
"Fsel_BioZ<2>v" "Fsel_BioZ[2]v"
"Fsel_BioZ<3>v" "Fsel_BioZ[3]v"
"MAG_ST<0>v" "MAG_ST[0]v"
"MAG_ST<1>v" "MAG_ST[1]v"
"MAG_ST<2>v" "MAG_ST[2]v"
"MAG_ST<3>v" "MAG_ST[3]v"
"MAG_ST<4>v" "MAG_ST[4]v"
"gnd!v" "cds_globals.\\gnd! v"
