HEADER
"PSFversion" "1.00"
"CH_SEL_D_ST<0>v" "CH_SEL_D_ST[0]v"
"CH_SEL_D_ST<1>v" "CH_SEL_D_ST[1]v"
"CH_SEL_EMG<0>v" "CH_SEL_EMG[0]v"
"CH_SEL_EMG<1>v" "CH_SEL_EMG[1]v"
"CH_SEL_EMG<2>v" "CH_SEL_EMG[2]v"
"CH_SEL_EMG<3>v" "CH_SEL_EMG[3]v"
"CH_SEL_U_ST<0>v" "CH_SEL_U_ST[0]v"
"CH_SEL_U_ST<1>v" "CH_SEL_U_ST[1]v"
"Col_BioZ<0>v" "Col_BioZ[0]v"
"Col_BioZ<1>v" "Col_BioZ[1]v"
"Fsel_BioZ<0>v" "Fsel_BioZ[0]v"
"Fsel_BioZ<1>v" "Fsel_BioZ[1]v"
"Fsel_BioZ<2>v" "Fsel_BioZ[2]v"
"Fsel_BioZ<3>v" "Fsel_BioZ[3]v"
"GAIN_EMG<0>v" "GAIN_EMG[0]v"
"GAIN_EMG<1>v" "GAIN_EMG[1]v"
"GAIN_EMG<2>v" "GAIN_EMG[2]v"
"Gain_TCA_SigGen_BioZ<0>v" "Gain_TCA_SigGen_BioZ[0]v"
"Gain_TCA_SigGen_BioZ<1>v" "Gain_TCA_SigGen_BioZ[1]v"
"MAG_ST<0>v" "MAG_ST[0]v"
"MAG_ST<1>v" "MAG_ST[1]v"
"MAG_ST<2>v" "MAG_ST[2]v"
"MAG_ST<3>v" "MAG_ST[3]v"
"MAG_ST<4>v" "MAG_ST[4]v"
"Row_BioZ<0>v" "Row_BioZ[0]v"
"Row_BioZ<1>v" "Row_BioZ[1]v"
"SenseMode_BioZ<0>v" "SenseMode_BioZ[0]v"
"SenseMode_BioZ<1>v" "SenseMode_BioZ[1]v"
"SenseMode_BioZ<2>v" "SenseMode_BioZ[2]v"
"gnd!v" "cds_globals.\\gnd! v"
