HEADER
"PSFversion" "1.00"
"M25n M24n M23n M22n M21n M20n M19n M26n M6n M13n M3n M1n" "PRIMLIB_nedia_bjt_spectre"
"M4n M2n M0n" "PRIMLIB_ped_bjt_spectre"
"R0n" "analogLib_res_spectre"
"I26n I25n" "analogLib_idc_spectre"
"V2n V1n V0n" "analogLib_vdc_spectre"
"I29n" "LS_LowSide_V2_ST"
"I28n" "LS_HighSide_V3_ST"
"I10n I11n" "LSHVT18U3VX1"
"R18n R17n R16n R9n R8n R1n" "PRIMLIB_rpp1k1_spectre"
"V6n V3n" "analogLib_vpulse_spectre"
