HEADER
"PSFversion" "1.00"
"M26n M25n M24n M23n M22n M21n M20n M19n M16n M15n M14n M11n M6n M13n M3n M1n" "PRIMLIB_nedia_bjt_spectre"
"M18n M17n M12n M4n M2n M0n" "PRIMLIB_ped_bjt_spectre"
"R15n R14n R13n R12n R11n R10n R7n R6n R5n R4n R3n R2n R9n R8n R0n" "analogLib_res_spectre"
"I26n I25n" "analogLib_idc_spectre"
"V8n V7n V4n V5n V6n V2n V1n V0n" "analogLib_vdc_spectre"
"M5n" "PRIMLIB_nmma_bjt_spectre"
"E0n" "analogLib_vcvs_spectre"
"I24n I18n I10n I11n" "LSHVT18U3VX1"
