HEADER
"PSFversion" "1.00"
"state<0>v" "state[0]v"
"state<1>v" "state[1]v"
"state<2>v" "state[2]v"
"next<0>v" "next[0]v"
"next<1>v" "next[1]v"
"next<2>v" "next[2]v"
