HEADER
"PSFversion" "1.00"
"inv" ".inv"
"outv" ".outv"
"gatev" ".gatev"
