HEADER
"PSFversion" "1.00"
"Clkv" ".Clkv"
"Resetv" ".Resetv"
"out<0>v" ".out[0]v"
"out<1>v" ".out[1]v"
"out<2>v" ".out[2]v"
