HEADER
"PSFversion" "1.00"
"I6n" "analogLib_idc_spectre"
"V0n" "analogLib_vsin_spectre"
"V1n" "analogLib_vdc_spectre"
"V2n" "analogLib_vpulse_spectre"
"I0n" "EMG_202009_VGA_verilogams"
"I3n" "EMG_202009_PGA_3Bit_verilogams"
"I5n" "EMG_202009_Counter_Nbit_functional"
