HEADER
"PSFversion" "1.00"
"Voutv" ".Voutv"
"Vinv" ".Vinv"
"Gain_Sel<0>v" ".Gain_Sel[0]v"
"Gain_Sel<1>v" ".Gain_Sel[1]v"
"Gain_Sel<2>v" ".Gain_Sel[2]v"
"Vddav" ".Vddav"
"Vssav" ".Vssav"
"Ibiasv" ".Ibiasv"
