HEADER
"PSFversion" "1.00"
"design" "(\"Stimulator_TestBench\" \"TB_ST_OutputDriver\" \"config\" \"\")"
"simulator" "ams"
"temperature" "27"
"host" ""
"date" "Feb 22 11:15:18 2021"
"title" ""
"analysisList" "()"
END
