HEADER
"PSFversion" "1.00"
"design" "(\"Stimulator_TestBench\" \"TB_TCA\" \"schematic\" \"\")"
"simulator" "spectre"
"temperature" "27"
"host" ""
"date" "Mar 12 16:22:17 2021"
"title" ""
"analysisList" "()"
END
