HEADER
"PSFversion" "1.00"
"Time Stamp" "Mar 12 16:22:17 2021"
TYPE
"variable" STRUCT(
"value" FLOAT DOUBLE
) PROP( "key" "element" )
VALUE
"vdac" "variable" ( 1.5 ) PROP( )
"temp" "variable" ( 27 ) PROP( )
END
