HEADER
"PSFversion" "1.00"
"design" "(\"Stimulator_TestBench\" \"TB_inv10\" \"schematic\" \"\")"
"simulator" "spectre"
"temperature" "27"
"host" ""
"date" "Mar  5 11:55:26 2021"
"title" ""
"analysisList" "()"
END
