HEADER
"PSFversion" "1.00"
"V0n V1n V10n V11n V12n V13n V16n V17n V18n V2n V3n V4n V5n V6n V7n V8n V9n" "analogLib_vdc_spectre"
"V14n" "analogLib_vpulse_spectre"
"I0n" "EMG_202009_MUX_16_verilogams"
"I1n" "EMG_202009_ADC_verilogams"
"I2n" "EMG_202009_DAC_verilogams"
"I4n" "EMG_202009_Counter_4bit_functional"
