HEADER
"PSFversion" "1.00"
"design" "(\"Stimulator_TestBench\" \"TB_ChannelSelection_imp\" \"config\" \"\")"
"simulator" "ams"
"temperature" "27"
"host" ""
"date" "Apr 13 14:33:24 2021"
"title" ""
"analysisList" "()"
END
