HEADER
"PSFversion" "1.00"
"design" "(\"Stimulator_TestBench\" \"TB_ChannelSelection_imp\" \"config\" \"\")"
"simulator" "ams"
"temperature" "27"
"host" ""
"date" "May  6 13:11:26 2021"
"title" ""
"analysisList" "()"
END
