HEADER
"PSFversion" "1.00"
"Time Stamp" "May  6 13:11:26 2021"
TYPE
"variable" STRUCT(
"value" FLOAT DOUBLE
) PROP( "key" "element" )
VALUE
"temp" "variable" ( 27 ) PROP( )
END
