HEADER
"PSFversion" "1.00"
"Time Stamp" "Apr 13 14:33:24 2021"
TYPE
"variable" STRUCT(
"value" FLOAT DOUBLE
) PROP( "key" "element" )
VALUE
"temp" "variable" ( 27 ) PROP( )
END
