HEADER
"PSFversion" "1.00"
"design" "(\"Stimulator_TestBench\" \"Digital_Stimulus_TB\" \"config\" \"\")"
"simulator" "ams"
"temperature" "27"
"host" ""
"date" "Feb 15 22:14:47 2021"
"title" ""
"analysisList" "()"
END
