HEADER
"PSFversion" "1.00"
"design" "(\"EMG_TestBench\" \"TB_Digital_Stimulus_EMG_NMES\" \"config\" \"\")"
"simulator" "ams"
"temperature" "27"
"host" ""
"date" "Feb 15 22:34:30 2021"
"title" ""
"analysisList" "()"
END
