HEADER
"PSFversion" "1.00"
"design" "(\"Stimulator_TestBench\" \"TB_CurrentMirror_DC\" \"schematic\" \"\")"
"simulator" "spectre"
"temperature" "27"
"host" ""
"date" "Mar 22 15:07:16 2021"
"title" ""
"analysisList" "()"
END
