HEADER
"PSFversion" "1.00"
"design" "(\"EMG_202009\" \"TB_ADC_V2\" \"config\" \"\")"
"simulator" "ams"
"temperature" "27"
"host" ""
"date" "Sep 30 14:11:40 2020"
"title" ""
"analysisList" "()"
END
