HEADER
"PSFversion" "1.00"
"Time Stamp" "Mar 12 15:37:55 2021"
TYPE
"variable" STRUCT(
"value" FLOAT DOUBLE
) PROP( "key" "element" )
VALUE
"VGS" "variable" ( 366.666666666667e-3 ) PROP( )
"VDS" "variable" ( 3.3 ) PROP( )
"W" "variable" ( 150e-6 ) PROP( )
"temp" "variable" ( 27 ) PROP( )
END
