HEADER
"PSFversion" "1.00"
"Time Stamp" "Mar 12 15:38:01 2021"
TYPE
"variable" STRUCT(
"value" FLOAT DOUBLE
) PROP( "key" "element" )
VALUE
"VGS" "variable" ( 1.83333333333333 ) PROP( )
"VDS" "variable" ( 3.3 ) PROP( )
"W" "variable" ( 150e-6 ) PROP( )
"temp" "variable" ( 27 ) PROP( )
END
