HEADER
"PSFversion" "1.00"
"design" "(\"Device_Characteristics\" \"DC_BIAS_nmma\" \"schematic\" \"\")"
"simulator" "spectre"
"temperature" "27"
"host" ""
"date" "Mar 17 15:15:11 2021"
"title" ""
"analysisList" "()"
END
