HEADER
"PSFversion" "1.00"
"design" "(\"Stimulator_TestBench\" \"TB_Stimulus_Driver\" \"config\" \"\")"
"simulator" "ams"
"temperature" "27"
"host" ""
"date" "Jan 13 15:26:41 2021"
"title" ""
"analysisList" "()"
END
