HEADER
"PSFversion" "1.00"
"Time Stamp" "Jan 13 15:26:41 2021"
TYPE
"variable" STRUCT(
"value" FLOAT DOUBLE
) PROP( "key" "element" )
VALUE
"temp" "variable" ( 27 ) PROP( )
END
