HEADER
"PSFversion" "1.00"
"__NEXT_FILE__" "DC_BIAS_nhhv"
