HEADER
"PSFversion" "1.00"
"design" "(\"VerilogAMS_Practice\" \"TB_CCVS\" \"config\" \"\")"
"simulator" "ams"
"temperature" "27"
"host" ""
"date" "Jan  9 22:51:06 2021"
"title" ""
"analysisList" "()"
END
