HEADER
"PSFversion" "1.00"
"design" "(\"Stimulator_TestBench\" \"TB_OneChannel_imp\" \"config\" \"\")"
"simulator" "ams"
"temperature" "27"
"host" ""
"date" "Apr  1 14:05:37 2021"
"title" ""
"analysisList" "()"
END
