HEADER
"PSFversion" "1.00"
"C1n C2n C3n" "analogLib_cap_spectre"
"I3n I5n" "analogLib_idc_spectre"
"R3n R4n R5n R6n R9n" "analogLib_res_spectre"
"V0n" "analogLib_vpwl_spectre"
"V1n V18n V19n V2n V20n V21n V22n V23n V24n V4n V6n" "analogLib_vdc_spectre"
"I1n" "EMG_Model_AFE_EMG_schematic"
"I2n" "Stimulator_Model_Digital_Stimulus_ST_V2_functional"
"I23n" "Stimulator_Model_Stimulator_4CH_V2_schematic"
