HEADER
"PSFversion" "1.00"
"design" "(\"EMG_NMES_TestBench\" \"Sim_StimulusArtifact\" \"config\" \"\")"
"simulator" "ams"
"temperature" "27"
"host" ""
"date" "Feb  9 11:20:09 2021"
"title" ""
"analysisList" "()"
END
