HEADER
"PSFversion" "1.00"
"design" "(\"EMG_NMES_TestBench\" \"Sim_StimulusArtifact\" \"config\" \"\")"
"simulator" "ams"
"temperature" "27"
"host" ""
"date" "May 13 15:52:31 2021"
"title" ""
"analysisList" "()"
END
