HEADER
"PSFversion" "1.00"
"inv" "(FUNCTION or(mappedRoot(\".4@index\") mappedRoot(\".in\")))v"
"inv" ".inv"
"inv" ".\\4 v"
"outv" "(FUNCTION or(mappedRoot(\".1@index\") mappedRoot(\".out\")))v"
"outv" ".outv"
"outv" ".\\1 v"
"vdd10v" "(FUNCTION or(mappedRoot(\".2@index\") mappedRoot(\".vdd10\")))v"
"vdd10v" ".vdd10v"
"vdd10v" ".\\2 v"
"vssv" "(FUNCTION or(mappedRoot(\".3@index\") mappedRoot(\".vss\")))v"
"vssv" ".vssv"
"vssv" ".\\3 v"
