HEADER
"PSFversion" "1.00"
"design" "(\"Stimulator_TestBench\" \"TB_PowerON_Protection_imp\" \"schematic\" \"\")"
"simulator" "spectre"
"temperature" "27"
"host" ""
"date" "Mar 30 16:39:01 2021"
"title" ""
"analysisList" "()"
END
