HEADER
"PSFversion" "1.00"
"Time Stamp" "Apr 15 11:23:32 2021"
TYPE
"variable" STRUCT(
"value" FLOAT DOUBLE
) PROP( "key" "element" )
VALUE
"d2" "variable" ( 0 ) PROP( )
"d1" "variable" ( 0 ) PROP( )
"d0" "variable" ( 0 ) PROP( )
"d4" "variable" ( 0 ) PROP( )
"d3" "variable" ( 0 ) PROP( )
"temp" "variable" ( 27 ) PROP( )
END
