HEADER
"PSFversion" "1.00"
"design" "(\"Stimulator_TestBench\" \"TB_Bias_Gen\" \"schematic\" \"\")"
"simulator" "spectre"
"temperature" "27"
"host" ""
"date" "Mar 11 16:49:37 2021"
"title" ""
"analysisList" "()"
END
