HEADER
"PSFversion" "1.00"
"Time Stamp" "Mar 11 16:49:37 2021"
TYPE
"variable" STRUCT(
"value" FLOAT DOUBLE
) PROP( "key" "element" )
VALUE
"R" "variable" ( 100e3 ) PROP( )
"temp" "variable" ( 27 ) PROP( )
END
