HEADER
"PSFversion" "1.00"
"__NEXT_FILE__" "TB_OneChannel_DC_imp"
