HEADER
"PSFversion" "1.00"
"__NEXT_FILE__" "EMG_TestBench_TB_AFE_MEG_schematic"
