HEADER
"PSFversion" "1.00"
"MAG_ST<0>v" "MAG_ST[0]v"
"MAG_ST<1>v" "MAG_ST[1]v"
"MAG_ST<2>v" "MAG_ST[2]v"
"MAG_ST<3>v" "MAG_ST[3]v"
"MAG_ST<4>v" "MAG_ST[4]v"
