HEADER
"PSFversion" "1.00"
"EN_STv" ".EN_STv"
"ANO_STv" ".ANO_STv"
"CAT_STv" ".CAT_STv"
"DIS_STv" ".DIS_STv"
"MAG_ST<0>v" ".MAG_ST[0]v"
"MAG_ST<1>v" ".MAG_ST[1]v"
"MAG_ST<2>v" ".MAG_ST[2]v"
"MAG_ST<3>v" ".MAG_ST[3]v"
"MAG_ST<4>v" ".MAG_ST[4]v"
