HEADER
"PSFversion" "1.00"
"I0n" "Stimulator_IMP_Digital_Stimulus_ST_functional"
