HEADER
"PSFversion" "1.00"
"M1n" "PRIMLIB_ne3_spectre"
"V2n V1n" "analogLib_vdc_spectre"
