HEADER
"PSFversion" "1.00"
"I1n" "analogLib_idc_spectre"
"R0n" "analogLib_res_spectre"
"V0n V1n V2n V3n" "analogLib_vdc_spectre"
"I0n" "Stimulator_IMP_SingleChannel_ST_schematic"
"I32n" "Stimulator_IMP_Digital_Stimulus_V2_ST_functional"
"I6n I7n" "Stimulator_IMP_Decoder3_8_functional"
