HEADER
"PSFversion" "1.00"
"CH_SEL<0>v" "CH_SEL[0]v"
"CH_SEL<1>v" "CH_SEL[1]v"
"MAG<0>v" "MAG[0]v"
"MAG<1>v" "MAG[1]v"
"MAG<2>v" "MAG[2]v"
"MAG<3>v" "MAG[3]v"
"MAG<4>v" "MAG[4]v"
"gnd!v" "cds_globals.\\gnd! v"
