HEADER
"PSFversion" "1.00"
"__NEXT_FILE__" "Stimulator_TestBench_Digital_Stimulus_TB_schematic"
