HEADER
"PSFversion" "1.00"
"design" "(\"EMG_TestBench\" \"TB_ADC_EMG\" \"config\" \"\")"
"simulator" "ams"
"temperature" "27"
"host" ""
"date" "Feb 17 19:54:36 2021"
"title" ""
"analysisList" "()"
END
