HEADER
"PSFversion" "1.00"
"design" "(\"Stimulator_TestBench\" \"TB_CurrentMirror_DC_imp\" \"schematic\" \"\")"
"simulator" "spectre"
"temperature" "27"
"host" ""
"date" "Apr 23 14:43:30 2021"
"title" ""
"analysisList" "()"
END
