HEADER
"PSFversion" "1.00"
"simulator" "spectre"
"version" "18.1.0.516.isr12"
"date" "11:13:11 AM, Wed Mar 31, 2021"
"design" "// Generated for: spectre"
"analysis type" "info.subckts"
"analysis name" "subckts"
"analysis description" "Circuit Information"
"xVecSorted" "unknown"
"tolerance.relative" 0.000100000
TYPE
"subckt" STRUCT(
"subckt_params" STRING *
"subckt_terminals" STRING *
"subckt_instances" STRING *
) PROP(
"key" "sub"
)
VALUE
"ne3lnai" "subckt" (
""
""
""
)
"pe3i_m_5" "subckt" (
""
""
""
)
"qpv_pe" "subckt" (
""
""
""
)
"jf_pmma" "subckt" (
""
""
""
)
"qnl_pc" "subckt" (
""
""
""
)
"dphoc_cat" "subckt" (
""
""
""
)
"dipdnwmv" "subckt" (
""
""
""
)
"qpl_pe" "subckt" (
""
""
""
)
"dn" "subckt" (
""
""
""
)
"nedia_bjt" "subckt" (
"adio extlay xf_subext par1 w adl pdio coselfheat l pdl"
"d g s sb"
"M10 M9 M21 M16 M8 M5 M0 M7 M6 M4 M3"
)
"dphod_an2" "subckt" (
""
""
""
)
"qnvc" "subckt" (
""
""
""
)
"dphodfp_an1" "subckt" (
""
""
""
)
"nhhvd" "subckt" (
""
""
""
)
"csf5a" "subckt" (
""
""
""
)
"csf2p" "subckt" (
""
""
""
)
"pe3lnai_5" "subckt" (
""
""
""
)
"mosvci" "subckt" (
""
""
""
)
"dphodfp" "subckt" (
""
""
""
)
"dsba" "subckt" (
""
""
""
)
"nei" "subckt" (
""
""
""
)
"qnvb_npn" "subckt" (
""
""
""
)
"csft6" "subckt" (
""
""
""
)
"dphod0_an1" "subckt" (
""
""
""
)
"nei_6" "subckt" (
""
""
""
)
"s_res" "subckt" (
""
""
""
)
"pmc" "subckt" (
""
""
""
)
"tag_25v" "subckt" (
""
""
""
)
"ddpldnw" "subckt" (
""
""
""
)
"pmma" "subckt" (
""
""
""
)
"rmtp" "subckt" (
""
""
""
)
"dnn3" "subckt" (
""
""
""
)
"qnvc_pnp" "subckt" (
""
""
""
)
"pe3lnai" "subckt" (
""
""
""
)
"dwhn" "subckt" (
""
""
""
)
"cmmh5t" "subckt" (
""
""
""
)
"dnp20" "subckt" (
""
""
""
)
"nd3i_6" "subckt" (
""
""
""
)
"ped" "subckt" (
""
""
""
)
"cdmmh4t" "subckt" (
""
""
""
)
"rdp_esd" "subckt" (
""
""
""
)
"rm1" "subckt" (
""
""
""
)
"csf4a" "subckt" (
""
""
""
)
"dphod0" "subckt" (
""
""
""
)
"dnhpw" "subckt" (
""
""
""
)
"nelnai_6" "subckt" (
""
""
""
)
"qnl_pd" "subckt" (
""
""
""
)
"dphoc" "subckt" (
""
""
""
)
"rnw" "subckt" (
""
""
""
)
"nesvti_6" "subckt" (
""
""
""
)
"tag_60v" "subckt" (
""
""
""
)
"pe3i_5" "subckt" (
""
""
""
)
"csft4" "subckt" (
""
""
""
)
"rpp1_3" "subckt" (
""
""
""
)
"dpdddnw" "subckt" (
""
""
""
)
"rnp1" "subckt" (
""
""
""
)
"peli_5" "subckt" (
""
""
""
)
"csf3" "subckt" (
""
""
""
)
"dhpw" "subckt" (
""
""
""
)
"nelnai_m_6" "subckt" (
""
""
""
)
"pe_5" "subckt" (
""
""
""
)
"mosvc" "subckt" (
""
""
""
)
"dpndf" "subckt" (
""
""
""
)
"pei" "subckt" (
""
""
""
)
"nei_m_6" "subckt" (
""
""
""
)
"jf_nmma" "subckt" (
""
""
""
)
"rpp1k1_3" "subckt" (
""
""
""
)
"pmmc" "subckt" (
""
""
""
)
"qnvb" "subckt" (
""
""
""
)
"rpp1k1" "subckt" (
"tc2r mf pm pmi wcd_AR r0 par1 w rsh tc1r pmc weff l"
"n1 n2 0"
"R3 R1"
)
"nmc_bjt" "subckt" (
""
""
""
)
"ddnw" "subckt" (
""
""
""
)
"rm2" "subckt" (
""
""
""
)
"pe" "subckt" (
""
""
""
)
"nmma" "subckt" (
""
""
""
)
"pe3lna_5" "subckt" (
""
""
""
)
"cpod" "subckt" (
""
""
""
)
"rm4" "subckt" (
""
""
""
)
"phhv" "subckt" (
""
""
""
)
"csf4" "subckt" (
""
""
""
)
"dnw3" "subckt" (
""
""
""
)
"qpl_pc" "subckt" (
""
""
""
)
"cmmh4" "subckt" (
""
""
""
)
"ne3lnai_6" "subckt" (
""
""
""
)
"cmm3" "subckt" (
""
""
""
)
"neli_m_6" "subckt" (
""
""
""
)
"nhhvd_bjt" "subckt" (
""
""
""
)
"pmb" "subckt" (
""
""
""
)
"rnp1h" "subckt" (
""
""
""
)
"csft4a" "subckt" (
""
""
""
)
"dnw" "subckt" (
""
""
""
)
"nhv" "subckt" (
""
""
""
)
"mosvci_m" "subckt" (
""
""
""
)
"csft6a" "subckt" (
""
""
""
)
"dphocfp" "subckt" (
""
""
""
)
"cmm4" "subckt" (
""
""
""
)
"pesvt_5" "subckt" (
""
""
""
)
"dphocfp_cat" "subckt" (
""
""
""
)
"nmmc" "subckt" (
""
""
""
)
"dp3" "subckt" (
""
""
""
)
"rnw3_scr" "subckt" (
""
""
""
)
"dpwhn" "subckt" (
""
""
""
)
"LSHVT18U3VX1" "subckt" (
""
"A Q inh_ground_gnd inh_power_vdd3 inh_power_vdde"
"I17 I0 I30 I4 I6 I29"
)
"rpp1" "subckt" (
""
""
""
)
"nhvd_bjt" "subckt" (
""
""
""
)
"dpp20" "subckt" (
""
""
""
)
"neli_6" "subckt" (
""
""
""
)
"nma_bjt" "subckt" (
""
""
""
)
"dndf" "subckt" (
""
""
""
)
"phv_bjt" "subckt" (
""
""
""
)
"dhnw" "subckt" (
""
""
""
)
"pmmc_bjt" "subckt" (
""
""
""
)
"nesvti" "subckt" (
""
""
""
)
"dp" "subckt" (
""
""
""
)
"dspada" "subckt" (
""
""
""
)
"nd3i_m_6" "subckt" (
""
""
""
)
"rm3" "subckt" (
""
""
""
)
"ne3lna" "subckt" (
""
""
""
)
"pe3lna" "subckt" (
""
""
""
)
"pe3lni_5" "subckt" (
""
""
""
)
"peli_m_5" "subckt" (
""
""
""
)
"nmmc_bjt" "subckt" (
""
""
""
)
"dphob" "subckt" (
""
""
""
)
"cmm5t" "subckt" (
""
""
""
)
"qpl_pa" "subckt" (
""
""
""
)
"qpv_pb" "subckt" (
"par1 area le"
"c b e"
"M10.xpnp M9.xpnp M21.xpnp M16.xpnp M8.xpnp M5.xpnp M0.xpnp M7.xpnp M6.xpnp M4.xpnp M3.xpnp"
)
"qpvascr" "subckt" (
""
""
""
)
"ne3" "subckt" (
"psl wcd_au0 ad nrs nrsl xf_subext as par1 pd w adl ps nrdl l wcd_avt asl nrd pdl"
"d g s b"
"I31.invr_1.MN1 I3.invr_1.MN1 I5.invr_1.MN1 I7.invr_1.MN1 I9.invr_1.MN1 I18.invr_1.MN1 M25 M24 M20 M19 M43 M37 M28 M53 M26 M13 M40 I17.M3 I17.M5 I17.M7 I17.M1 I0.M3 I0.M5 I0.M7 I0.M1 I30.M3 I30.M5 I30.M7 I30.M1 I4.M3 I4.M5 I4.M7 I4.M1 I6.M3 I6.M5 I6.M7 I6.M1 I29.M3 I29.M5 I29.M7 I29.M1"
)
"cmmh6t" "subckt" (
""
""
""
)
"pfuse" "subckt" (
""
""
""
)
"nhv_bjt" "subckt" (
""
""
""
)
"ctmm5" "subckt" (
""
""
""
)
"qpv_pa" "subckt" (
""
""
""
)
"dbn" "subckt" (
""
""
""
)
"phv" "subckt" (
""
""
""
)
"mosvc3i_m" "subckt" (
""
""
""
)
"rdn_esd" "subckt" (
""
""
""
)
"rdnwmv" "subckt" (
""
""
""
)
"ctmmh5t" "subckt" (
""
""
""
)
"pel" "subckt" (
""
""
""
)
"qpvc" "subckt" (
""
""
""
)
"nelnai" "subckt" (
""
""
""
)
"pmc_bjt" "subckt" (
""
""
""
)
"dphodfp_an2" "subckt" (
""
""
""
)
"csf3p" "subckt" (
""
""
""
)
"qpv_pc" "subckt" (
"par1 area le"
"c b e"
"M11.xpnp M14.xpnp M18.xpnp M12.xpnp M15.xpnp M17.xpnp"
)
"csandwt3" "subckt" (
""
""
""
)
"pe3lnai_m_5" "subckt" (
""
""
""
)
"ne3i" "subckt" (
""
""
""
)
"qnva" "subckt" (
""
""
""
)
"cdmm4" "subckt" (
""
""
""
)
"nel" "subckt" (
""
""
""
)
"nmc" "subckt" (
""
""
""
)
"pesvt" "subckt" (
""
""
""
)
"qpva3" "subckt" (
""
""
""
)
"rnp1h_3" "subckt" (
""
""
""
)
"qpl_pb" "subckt" (
""
""
""
)
"dn3dpl" "subckt" (
""
""
""
)
"rdn3" "subckt" (
""
""
""
)
"cmm4t" "subckt" (
""
""
""
)
"phhv_bjt" "subckt" (
""
""
""
)
"dipdnw" "subckt" (
""
""
""
)
"qnvc_npn" "subckt" (
""
""
""
)
"pel_5" "subckt" (
""
""
""
)
"qnvb_pnp" "subckt" (
""
""
""
)
"csft5" "subckt" (
""
""
""
)
"nmmd" "subckt" (
""
""
""
)
"qpvhbscr" "subckt" (
""
""
""
)
"dphod_an1" "subckt" (
""
""
""
)
"pe3lni_m_5" "subckt" (
""
""
""
)
"dpdnwmv" "subckt" (
""
""
""
)
"cdmm4t" "subckt" (
""
""
""
)
"pei_m_5" "subckt" (
""
""
""
)
"ddnwmv" "subckt" (
""
""
""
)
"pma_bjt" "subckt" (
""
""
""
)
"cpod_i" "subckt" (
""
""
""
)
"qpv_pd" "subckt" (
""
""
""
)
"csandwt5" "subckt" (
""
""
""
)
"qpl_pf" "subckt" (
""
""
""
)
"ped2" "subckt" (
""
""
""
)
"ctmmh5" "subckt" (
""
""
""
)
"cdmmh4" "subckt" (
""
""
""
)
"csft5a" "subckt" (
"mfak perimeter par1 area wcd_AC"
"n1 n2"
"C5 C1"
)
"ne3lnai_m_6" "subckt" (
""
""
""
)
"qnl_pe" "subckt" (
""
""
""
)
"dphod0_an2" "subckt" (
""
""
""
)
"dpol" "subckt" (
""
""
""
)
"dspada0" "subckt" (
""
""
""
)
"pei_5" "subckt" (
""
""
""
)
"dphnw" "subckt" (
""
""
""
)
"rmtpl" "subckt" (
""
""
""
)
"dapda_cat" "subckt" (
""
""
""
)
"nhhv_bjt" "subckt" (
""
""
""
)
"ne" "subckt" (
""
""
""
)
"ne3i_6" "subckt" (
""
""
""
)
"pe3" "subckt" (
"psl wcd_au0 ad nrs nrsl xf_subext as par1 pd w adl ps nrdl l wcd_avt asl nrd pdl"
"d g s b"
"I31.invr_1.MP1 I3.invr_1.MP1 I5.invr_1.MP1 I7.invr_1.MP1 I9.invr_1.MP1 I18.invr_1.MP1 I17.M6 I17.M8 I17.M9 I17.M0 I17.M2 I17.M4 I0.M6 I0.M8 I0.M9 I0.M0 I0.M2 I0.M4 I30.M6 I30.M8 I30.M9 I30.M0 I30.M2 I30.M4 I4.M6 I4.M8 I4.M9 I4.M0 I4.M2 I4.M4 I6.M6 I6.M8 I6.M9 I6.M0 I6.M2 I6.M4 I29.M6 I29.M8 I29.M9 I29.M0 I29.M2 I29.M4 M2 M1 M50 M41 M38 M35 M32 M22 M48 M54 M51 M42 M39 M36 M33 M29 M49 M44 M45 M46 M47 M31 M52"
)
"dpdnw" "subckt" (
""
""
""
)
"dscidnwmv" "subckt" (
""
""
""
)
"IN_3VX2" "subckt" (
""
"A Q inh_ground_gnd inh_power_vdd3"
"I31 I3 I5 I7 I9 I18"
)
"ped2_bjt" "subckt" (
""
""
""
)
"nedia" "subckt" (
""
""
""
)
"nelna" "subckt" (
""
""
""
)
"qpl_pd" "subckt" (
""
""
""
)
"dnhpwa" "subckt" (
""
""
""
)
"nesvti_m_6" "subckt" (
""
""
""
)
"rdp" "subckt" (
""
""
""
)
"pesvti_m_5" "subckt" (
""
""
""
)
"dphod" "subckt" (
""
""
""
)
"nhvd" "subckt" (
""
""
""
)
"cmmh3" "subckt" (
""
""
""
)
"cmm6t" "subckt" (
""
""
""
)
"dphnwa" "subckt" (
""
""
""
)
"dphoa" "subckt" (
""
""
""
)
"rm5" "subckt" (
""
""
""
)
"dpdd_scr" "subckt" (
""
""
""
)
"dpdwhn" "subckt" (
""
""
""
)
"csf3a" "subckt" (
""
""
""
)
"pe3ln_5" "subckt" (
""
""
""
)
"ctmm5t" "subckt" (
""
""
""
)
"nedi" "subckt" (
""
""
""
)
"qpvb3" "subckt" (
""
""
""
)
"dphoc0" "subckt" (
""
""
""
)
"dapda" "subckt" (
""
""
""
)
"nmmd_bjt" "subckt" (
""
""
""
)
"dsb" "subckt" (
""
""
""
)
"csf5" "subckt" (
""
""
""
)
"mosvc3" "subckt" (
""
""
""
)
"qpvc3" "subckt" (
""
""
""
)
"cmmh4t" "subckt" (
""
""
""
)
"cpodhv" "subckt" (
""
""
""
)
"mosvc3i" "subckt" (
""
""
""
)
"ped_bjt" "subckt" (
"adio ad extlay xf_subext par1 pd w adl pdio coselfheat l pdl"
"d g s sb"
"M11 M14 M18 M12 M15 M17"
)
"nmma_bjt" "subckt" (
""
""
""
)
"qpvb" "subckt" (
""
""
""
)
"rnp1_3" "subckt" (
""
""
""
)
"rdp_io" "subckt" (
""
""
""
)
"pe3lni" "subckt" (
""
""
""
)
"qnl_pa" "subckt" (
""
""
""
)
"rnw3" "subckt" (
""
""
""
)
"pesvti" "subckt" (
""
""
""
)
"dapda0" "subckt" (
""
""
""
)
"ne3i_m_6" "subckt" (
""
""
""
)
"dspada_cat" "subckt" (
""
""
""
)
"rdp3" "subckt" (
""
""
""
)
"csandwt4" "subckt" (
""
""
""
)
"qnl_pb" "subckt" (
""
""
""
)
"pesvti_5" "subckt" (
""
""
""
)
"nd3i" "subckt" (
""
""
""
)
"pe3_5" "subckt" (
""
""
""
)
"invrv3" "subckt" (
"sx lc GT_PDL GT_PDW GT_PUW GT_PUL"
"in out inh_ground_gnd inh_power_vdd3"
"I31.invr_1 I3.invr_1 I5.invr_1 I7.invr_1 I9.invr_1 I18.invr_1"
)
"rpp1s_3" "subckt" (
""
""
""
)
"rdn" "subckt" (
""
""
""
)
"nesvt" "subckt" (
""
""
""
)
"nhhv" "subckt" (
""
""
""
)
"rpp1s" "subckt" (
""
""
""
)
"qpvhscr" "subckt" (
""
""
""
)
"nedi_bjt" "subckt" (
""
""
""
)
"pmma_bjt" "subckt" (
""
""
""
)
"dphoc0_cat" "subckt" (
""
""
""
)
"dnpdd_scr" "subckt" (
""
""
""
)
"peli" "subckt" (
""
""
""
)
"dn3" "subckt" (
""
""
""
)
"nd3" "subckt" (
""
""
""
)
"pma" "subckt" (
""
""
""
)
"neli" "subckt" (
""
""
""
)
"qnl_pf" "subckt" (
""
""
""
)
"cpodhv_i" "subckt" (
""
""
""
)
"qpv_pf" "subckt" (
""
""
""
)
"dn3sci" "subckt" (
""
""
""
)
"pe3ln" "subckt" (
""
""
""
)
"rnw_scr" "subckt" (
""
""
""
)
"nn3" "subckt" (
""
""
""
)
"pe3i" "subckt" (
""
""
""
)
"qpva" "subckt" (
""
""
""
)
"nma" "subckt" (
""
""
""
)
END
