HEADER
"PSFversion" "1.00"
"Time Stamp" "Apr 23 14:43:30 2021"
TYPE
"variable" STRUCT(
"value" FLOAT DOUBLE
) PROP( "key" "element" )
VALUE
"temp" "variable" ( 27 ) PROP( )
END
