HEADER
"PSFversion" "1.00"
"design" "(\"Stimulator_TestBench\" \"TB_OneChannel_imp\" \"config\" \"\")"
"simulator" "ams"
"temperature" "27"
"host" ""
"date" "Mar 31 11:45:33 2021"
"title" ""
"analysisList" "()"
END
