HEADER
"PSFversion" "1.00"
"M0n" "PRIMLIB_ne_spectre"
"M1n" "PRIMLIB_pe_spectre"
"inv" ":1v"
"outv" ":2v"
"vdddv" ":3v"
"vssv" ":4v"
