HEADER
"PSFversion" "1.00"
"__NEXT_FILE__" "LS_HighSide_ST"
