HEADER
"PSFversion" "1.00"
"__artInstanceTerminalDelimiter__" "."
"__artHierarchyDelimiter__" "."
"__netlister__" "AMS-UNL"
"__lib__" "EMG_TestBench"
"__cell__" "TB_AFE_EMG"
"__view__" "config"
"__topcell__" "TB_AFE_EMG"
"__outputformat__" "sst2"
