HEADER
"PSFversion" "1.00"
"Dv" ":1v"
"Gv" ":2v"
"Sv" ":3v"
"Bv" ":4v"
"(op ?)p" "id ids isub vgs vbs vds vth vdsat gm gds ron"
"(op id)p" "OP( mappedRoot(\".m1\") \"id\")"
"(op ids)p" "OP( mappedRoot(\".m1\") \"ids\")"
"(op isub)p" "OP( mappedRoot(\".m1\") \"isub\")"
"(op vgs)p" "OP( mappedRoot(\".m1\") \"vgs\")"
"(op vbs)p" "OP( mappedRoot(\".m1\") \"vbs\")"
"(op vds)p" "OP( mappedRoot(\".m1\") \"vds\")"
"(op vth)p" "OP( mappedRoot(\".m1\") \"vth\")"
"(op vdsat)p" "OP( mappedRoot(\".m1\") \"vdsat\")"
"(op gm)p" "OP( mappedRoot(\".m1\") \"gm\")"
"(op gds)p" "OP( mappedRoot(\".m1\") \"gds\")"
"(op ron)p" "OP( mappedRoot(\".m1\") \"ron\")"
"(mp ?)p" "vtho cj tox cjsw"
"(mp vtho)p" "MP( mappedRoot(\".m1\") \"vtho\")"
"(mp cj)p" "MP( mappedRoot(\".m1\") \"cj\")"
"(mp tox)p" "MP( mappedRoot(\".m1\") \"tox\")"
"(mp cjsw)p" "MP( mappedRoot(\".m1\") \"cjsw\")"
"(opt ?)p" "id ids isub vgs vbs vds vth vdsat gm gds ron"
"(opt id)p" "OPT( mappedRoot(\".m1\") \"id\")"
"(opt ids)p" "OPT( mappedRoot(\".m1\") \"ids\")"
"(opt isub)p" "OPT( mappedRoot(\".m1\") \"isub\")"
"(opt vgs)p" "OPT( mappedRoot(\".m1\") \"vgs\")"
"(opt vbs)p" "OPT( mappedRoot(\".m1\") \"vbs\")"
"(opt vds)p" "OPT( mappedRoot(\".m1\") \"vds\")"
"(opt vth)p" "OPT( mappedRoot(\".m1\") \"vth\")"
"(opt vdsat)p" "OPT( mappedRoot(\".m1\") \"vdsat\")"
"(opt gm)p" "OPT( mappedRoot(\".m1\") \"gm\")"
"(opt gds)p" "OPT( mappedRoot(\".m1\") \"gds\")"
"(opt ron)p" "OPT( mappedRoot(\".m1\") \"ron\")"
