HEADER
"PSFversion" "1.00"
"design" "(\"EMG_202009\" \"TB_IA\" \"config\" \"\")"
"simulator" "spectre"
"temperature" "27"
"host" ""
"date" "Sep 21 13:46:06 2020"
"title" ""
"analysisList" "()"
END
