HEADER
"PSFversion" "1.00"
"design" "(\"Device_Characteristics\" \"DC_HBridge\" \"schematic\" \"\")"
"simulator" "spectre"
"temperature" "27"
"host" ""
"date" "Mar 19 15:56:29 2021"
"title" ""
"analysisList" "()"
END
