HEADER
"PSFversion" "1.00"
"Time Stamp" "Apr  8 12:43:56 2021"
TYPE
"variable" STRUCT(
"value" FLOAT DOUBLE
) PROP( "key" "element" )
VALUE
"temp" "variable" ( 27 ) PROP( )
END
