HEADER
"PSFversion" "1.00"
"V1n V0n" "analogLib_vdc_spectre"
"M0n" "PRIMLIB_nhv_bjt_spectre"
