HEADER
"PSFversion" "1.00"
"design" "(\"EMG_TestBench\" \"TB_AFE_MEG\" \"config\" \"\")"
"simulator" "ams"
"temperature" "27"
"host" ""
"date" "Nov 16 22:44:10 2020"
"title" ""
"analysisList" "()"
END
