HEADER
"PSFversion" "1.00"
"gnd!v" "cds_globals.\\gnd! v"
