HEADER
"PSFversion" "1.00"
"M0n" "PRIMLIB_nmma_bjt_spectre"
"V2n V1n" "analogLib_vdc_spectre"
