HEADER
"PSFversion" "1.00"
"__NEXT_FILE__" "EMG_202009_TB_IA_schematic"
