HEADER
"PSFversion" "1.00"
"E0n E1n E2n" "analogLib_vcvs_spectre"
"I1n" "analogLib_idc_spectre"
"V0n V1n" "analogLib_vdc_spectre"
"V2n" "analogLib_vsin_spectre"
"I0n" "EMG_Model_IA_EMG_verilogams"
