HEADER
"PSFversion" "1.00"
"design" "(\"Stimulator_TestBench\" \"TB_LS_HighSide_DMOS_ST\" \"schematic\" \"\")"
"simulator" "spectre"
"temperature" "27"
"host" ""
"date" "Mar  9 16:38:48 2021"
"title" ""
"analysisList" "()"
END
