HEADER
"PSFversion" "1.00"
"design" "(\"Stimulator_TestBench\" \"TB_LS_LowSide\" \"schematic\" \"\")"
"simulator" "spectre"
"temperature" "27"
"host" ""
"date" "Mar  5 13:47:26 2021"
"title" ""
"analysisList" "()"
END
