HEADER
"PSFversion" "1.00"
"Q<0>v" ".Q[0]v"
"Q<1>v" ".Q[1]v"
"Q<2>v" ".Q[2]v"
"Q<3>v" ".Q[3]v"
"Clkv" ".Clkv"
"Resetv" ".Resetv"
