HEADER
"PSFversion" "1.00"
"Voutv" ".Voutv"
"Vinpv" ".Vinpv"
"Vinnv" ".Vinnv"
"Vddav" ".Vddav"
"Vssav" ".Vssav"
