HEADER
"PSFversion" "1.00"
"Voutv" ".Voutv"
"Vin0v" ".Vin0v"
"Vin1v" ".Vin1v"
"Vin2v" ".Vin2v"
"Vin3v" ".Vin3v"
"Vin4v" ".Vin4v"
"Vin5v" ".Vin5v"
"Vin6v" ".Vin6v"
"Vin7v" ".Vin7v"
"Vin8v" ".Vin8v"
"Vin9v" ".Vin9v"
"Vin10v" ".Vin10v"
"Vin11v" ".Vin11v"
"Vin12v" ".Vin12v"
"Vin13v" ".Vin13v"
"Vin14v" ".Vin14v"
"Vin15v" ".Vin15v"
"Clkv" ".Clkv"
"sel<0>v" ".sel[0]v"
"sel<1>v" ".sel[1]v"
"sel<2>v" ".sel[2]v"
"sel<3>v" ".sel[3]v"
"Vddav" ".Vddav"
"Vssav" ".Vssav"
