HEADER
"PSFversion" "1.00"
"I31n I3n I5n I7n I9n I18n" "IN_3VX2"
"M43n M37n M28n M53n M26n M13n M40n" "PRIMLIB_ne3_spectre"
"M21n M16n M8n M5n M0n M7n M6n M4n M3n" "PRIMLIB_nedia_bjt_spectre"
"I17n I0n I30n I4n I6n I29n" "LSHVT18U3VX1"
"M50n M41n M38n M35n M32n M22n M48n M54n M51n M42n M39n M36n M33n M29n M49n M44n M45n M46n M47n M31n M52n" "PRIMLIB_pe3_spectre"
"R1n" "PRIMLIB_rpp1k1_spectre"
"R0n" "analogLib_res_spectre"
"M11n M1n M2n M12n M10n M9n" "PRIMLIB_ped_bjt_spectre"
"V9n V8n V7n V6n V5n V2n V4n V3n V1n V0n" "analogLib_vdc_spectre"
