HEADER
"PSFversion" "1.00"
"out<0>v" "out[0]v"
"out<1>v" "out[1]v"
"out<2>v" "out[2]v"
"out<3>v" "out[3]v"
"out<4>v" "out[4]v"
