HEADER
"PSFversion" "1.00"
"Ianov" ".Ianov"
"Icatv" ".Icatv"
"Istv" ".Istv"
"ANOv" ".ANOv"
"CATv" ".CATv"
"DISv" ".DISv"
"VddHv" ".VddHv"
"Vddav" ".Vddav"
"Vssav" ".Vssav"
"Vdddv" ".Vdddv"
"Vssdv" ".Vssdv"
