HEADER
"PSFversion" "1.00"
"Ioutpv" ".Ioutpv"
"Ioutnv" ".Ioutnv"
"Mag<0>v" ".Mag[0]v"
"Mag<1>v" ".Mag[1]v"
"Mag<2>v" ".Mag[2]v"
"Mag<3>v" ".Mag[3]v"
"Mag<4>v" ".Mag[4]v"
"Vddav" ".Vddav"
"Vssav" ".Vssav"
"Vdddv" ".Vdddv"
"Vssdv" ".Vssdv"
"Ibiasv" ".Ibiasv"
