HEADER
"PSFversion" "1.00"
"Mag<0>v" "Mag[0]v"
"Mag<1>v" "Mag[1]v"
"Mag<2>v" "Mag[2]v"
"Mag<3>v" "Mag[3]v"
"Mag<4>v" "Mag[4]v"
