HEADER
"PSFversion" "1.00"
"Ioutv" ".Ioutv"
"Irefv" ".Irefv"
"Vddav" ".Vddav"
"Vssav" ".Vssav"
