HEADER
"PSFversion" "1.00"
"C4n C5n" "analogLib_cap_spectre"
"I9n" "analogLib_idc_spectre"
"R6n R7n R8n" "analogLib_res_spectre"
"V1n V2n V6n V9n" "analogLib_vdc_spectre"
"I7n" "Stimulator_Model_Stimulator_Single_CH_schematic"
"I8n" "Stimulator_Model_Digital_Stimulus_ST_functional"
