HEADER
"PSFversion" "1.00"
"C2n C3n" "analogLib_cap_spectre"
"I11n" "analogLib_idc_spectre"
"R3n R4n R5n" "analogLib_res_spectre"
"V0n V3n V4n" "analogLib_vpulse_spectre"
"V1n V2n V5n V6n" "analogLib_vdc_spectre"
"I10n" "Stimulator_Model_Current_Source_verilogams"
"I12n" "Digital_Lib_Counter_functional"
"I2n" "Stimulator_Model_Current_Mirror_verilogams"
"I3n" "Stimulator_Model_H_Bridge_verilogams"
