HEADER
"PSFversion" "1.00"
"__NEXT_FILE__" "EMG_TestBench_TB_Digital_Stimulus_EMG_NMES_schematic"
