HEADER
"PSFversion" "1.00"
"design" "(\"EMG_TestBench\" \"TB_IA_V2\" \"config\" \"\")"
"simulator" "ams"
"temperature" "27"
"host" ""
"date" "Nov 17 23:50:00 2020"
"title" ""
"analysisList" "()"
END
