HEADER
"PSFversion" "1.00"
"Time Stamp" "Nov 17 23:50:00 2020"
TYPE
"variable" STRUCT(
"value" FLOAT DOUBLE
) PROP( "key" "element" )
VALUE
"temp" "variable" ( 27 ) PROP( )
END
