HEADER
"PSFversion" "1.00"
"design" "(\"Stimulator_TestBench\" \"TB_4CH_ST_V2\" \"config\" \"\")"
"simulator" "ams"
"temperature" "27"
"host" ""
"date" "Feb 23 11:19:40 2021"
"title" ""
"analysisList" "()"
END
