HEADER
"PSFversion" "1.00"
"design" "(\"Stimulator_IMP\" \"LS_HighSide_ST\" \"schematic\" \"\")"
"simulator" "spectre"
"temperature" "27"
"host" ""
"date" "Mar  8 11:31:33 2021"
"title" ""
"analysisList" "()"
END
