HEADER
"PSFversion" "1.00"
"design" "(\"Device_Characteristics\" \"DC_BIAS_nhhv\" \"schematic\" \"\")"
"simulator" "spectre"
"temperature" "27"
"host" ""
"date" "Feb 27 16:00:55 2021"
"title" ""
"analysisList" "()"
END
