HEADER
"PSFversion" "1.00"
"I8n I1n" "INV3_ST"
"I12n I11n" "INV10_ST"
"M3n M2n" "PRIMLIB_pmma_bjt_spectre"
"M9n M8n" "PRIMLIB_nmma_bjt_spectre"
"inv" ":1v"
"outv" ":2v"
"outnv" ":3v"
"vdd10v" ":4v"
"vdd3v" ":5v"
"vssv" ":6v"
