HEADER
"PSFversion" "1.00"
"__NEXT_FILE__" "TB_LS_HighSide_DMOS_ST"
