HEADER
"PSFversion" "1.00"
"design" "(\"Stimulator_TestBench\" \"TB_CurrentMirror\" \"config\" \"\")"
"simulator" "ams"
"temperature" "27"
"host" ""
"date" "Mar 22 15:02:19 2021"
"title" ""
"analysisList" "()"
END
