HEADER
"PSFversion" "1.00"
"__NEXT_FILE__" "VerilogAMS_Practice_TB_CCVS_schematic"
