HEADER
"PSFversion" "1.00"
"poutv" ".poutv"
"noutv" ".noutv"
"pinv" ".pinv"
"ninv" ".ninv"
