HEADER
"PSFversion" "1.00"
"I4n" "analogLib_isin_spectre"
"I1n" "VerilogAMS_Practice_CCVS_verilogams"
