HEADER
"PSFversion" "1.00"
"I0n" "Single_Channel"
"V2n" "analogLib_vsin_spectre"
"V1n V0n" "analogLib_vdc_spectre"
"E1n E0n" "analogLib_vcvs_spectre"
